:MDSTEP: 30
:R(Bohr):
  3.7671978144E-01   3.9481308662E-01   2.2428945743E-01
  3.9175888934E+00   1.5426204291E+01   4.1239137219E+00
  8.0416603483E+00   1.5272636906E+01   1.2416376747E-01
  1.1438692419E+01   1.5433830018E+01   3.6502224659E+00
  1.4772032547E-01   7.9672212953E+00   1.5438528793E+01
  3.7610985255E+00   7.9669602499E+00   3.8319644771E+00
  7.3277460144E+00   7.4638675933E+00   1.4767777117E-01
  1.1611024395E+01   7.8326197561E+00   4.0640782840E+00
  5.8216560572E-01   1.5258959092E+01   7.7900080410E+00
  3.6606153958E+00   2.9244896097E-02   1.1295964448E+01
  7.7409552858E+00   5.1623233348E-02   7.8694281668E+00
  1.1657911543E+01   1.5261406227E+01   1.1832531353E+01
  2.8859680634E-01   7.7517338942E+00   7.9290013294E+00
  4.2551667013E+00   7.9400857584E+00   1.1559522833E+01
  7.3677735703E+00   8.0573165880E+00   7.5800585399E+00
  1.1615166506E+01   7.3156575696E+00   1.1568682061E+01
  9.1634723548E-02   3.9573576202E+00   3.9677383292E+00
  3.7486250177E+00   3.8908406957E+00   3.7054444964E-03
  7.8892804250E+00   3.6559296779E+00   3.4428242049E+00
  1.1449845507E+01   3.8380619482E+00   1.5298531459E+01
  3.4565183060E-01   1.1499598611E+01   3.9425670484E+00
  3.6388595491E+00   1.1643038516E+01   5.0837114303E-01
  7.8903622704E+00   1.1776618142E+01   3.8704756930E+00
  1.1122021677E+01   1.1585567710E+01   7.3695239863E-02
  1.3930151449E-01   3.7318485936E+00   1.1319379942E+01
  3.8436894541E+00   3.7170302760E+00   8.0138137791E+00
  7.9735131295E+00   3.7932976442E+00   1.1620126878E+01
  1.1445093685E+01   3.9958761603E+00   7.8770237104E+00
  3.0888465334E-01   1.1603475823E+01   1.1585318130E+01
  3.7072576569E+00   1.1320114475E+01   7.9010973672E+00
  7.9058137416E+00   1.1829007096E+01   1.1790353231E+01
  1.1709238267E+01   1.1609543281E+01   7.8849553396E+00
:V(Bohr/atu):
 -6.9777686454E-05   4.9530345615E-04   2.8763645612E-04
  1.3578934035E-04  -4.3234928838E-05   3.1037298085E-04
  3.3212206057E-04  -2.3066353919E-04  -2.8189561116E-04
 -1.6097634456E-04  -4.2516301197E-05  -2.3490758166E-04
  1.8880326036E-04   2.7534038940E-04  -3.5044377579E-05
 -1.5641117941E-04   3.1861290537E-04  -3.7405978370E-05
 -4.7726465776E-04  -3.3197149730E-04   2.0167840127E-04
  1.8233333208E-05   1.3496936442E-04   2.5477252779E-04
  9.5086144022E-05  -2.6469687675E-04   3.2388260178E-05
 -1.9394910128E-04   2.8862145730E-05  -3.1452220434E-04
  2.0600591342E-05   6.8772738903E-05  -2.1982988474E-04
  1.1548251554E-04  -2.5974763246E-04   3.1100701424E-04
  3.7050041911E-04   4.1407733524E-05   2.6343104672E-04
  4.7672720479E-04   2.4517366163E-04  -4.7180544095E-05
 -4.3816661329E-04   3.9877483707E-04  -1.9907637080E-04
  1.2834971520E-05  -5.6093199069E-04  -2.2508910427E-05
  1.6355827066E-04   1.0542234782E-04   1.2917864935E-04
 -1.7831066917E-04   3.5623528569E-05   7.5061944897E-05
  2.2686278174E-04  -2.9261214655E-04  -6.4552814459E-04
 -2.9057285112E-04   2.1809699695E-05  -2.1729819538E-04
  1.8209481684E-04  -1.4549860266E-04   9.6007551218E-05
 -3.1261213335E-04   5.6964306028E-05   9.4437755098E-05
  2.4724836884E-04   2.2972335434E-04  -1.1012192309E-04
 -7.6538370547E-04   1.1212656983E-05   1.5037253590E-04
  2.0002367955E-04  -1.5585276990E-04  -4.3362335693E-04
 -9.1691171037E-05  -2.0211801537E-04   4.4032979611E-04
  4.0215368149E-04  -8.1807932186E-05   4.3753471893E-06
 -2.1089793481E-04   1.6196736657E-04   2.4181827808E-04
  7.0496404950E-05   3.0413105060E-05  -1.1006812851E-04
 -3.6052829570E-04  -3.6081693769E-04  -4.4939983406E-04
  3.4766944574E-04   3.0992378377E-04   1.8867139276E-04
  1.1084900056E-04   1.2935833723E-05   2.8743680480E-04
:NPT_NH_QMASS: 4
 4000 4000 4000 4000
:NPT_NH_BMASS: 250000
:NPT_NH_vlogs: 4
 4.2190906243196e-05 -0.000664660255186799 -0.000577695693465655 -0.000518845228096048
:NPT_NH_vlogv: 0.00013414397186893
:NPT_NH_xlogs: 4
 0.0271278497594068 -0.216013052812126 -0.20417627277199 -0.192956347634494
:LATVEC_SCALE: 15.4624162151357 15.4624162151357 15.4624162151357
:TTHRMI(K): 1120
:TARGET_PRESSURE: 0 GPa
:TEL(K):   1.1200000000E+03
:TIO(K):   1.0948260115E+03
