:MDSTEP: 10
:R(Bohr):
  2.2762899545E+01   6.3044215541E-01   2.3045783376E+01
  3.7585743826E+00   3.5697934107E+00   3.6353651104E-01
  3.3383927641E-01   3.6102511916E+00   3.4260237336E+00
  3.6374447271E+00   4.1754069460E+00   7.2197714413E+00
  2.3095076085E+01   4.2075734797E+00   1.1733702220E+01
  3.6212338350E+00   1.4630909571E-01   1.0771696504E+01
  2.2682266674E+01   2.2763842718E+01   1.5972492060E+01
  3.9067424981E+00   3.8091503197E+00   1.5625305116E+01
  4.5448945164E+00   2.2382421458E+01   1.9142074175E+01
  2.2610215372E+01   7.8561780618E+00   2.2575803965E+01
  4.1380636387E+00   1.1892513553E+01   2.2865659376E+01
  2.9408387980E-01   1.1262193311E+01   4.0382509462E+00
  4.1446941978E+00   7.8335338510E+00   3.8755039904E+00
  5.6835380212E-01   8.2447464737E+00   7.4727767979E+00
  3.3273648303E+00   1.2003620510E+01   7.7862314756E+00
  3.5932404688E+00   6.9794759643E+00   1.1415468974E+01
  2.2934311210E+01   8.4345439256E+00   1.5425984138E+01
  3.7649063702E+00   1.1633161026E+01   1.5287428276E+01
  2.3173198948E+01   1.1238113845E+01   1.9421304315E+01
  4.3117491701E+00   8.1521982735E+00   1.9205185722E+01
  2.3039354551E+01   1.5018420402E+01   2.3297555456E+01
  4.3808441058E+00   1.9306284376E+01   2.3000295110E+01
  2.2864210023E+01   1.9297697254E+01   3.7942606799E+00
  3.9407389896E+00   1.5551244328E+01   3.9497109362E+00
  2.2473828565E+01   1.5560008025E+01   7.7432157074E+00
  2.3043802639E+01   1.9276128546E+01   1.1489294564E+01
  3.5775159710E+00   1.5219913305E+01   1.1600849465E+01
  2.3202680080E+01   1.5249633093E+01   1.5815713119E+01
  3.5525392951E+00   1.8899826703E+01   1.5596190418E+01
  5.6089874440E-01   1.9559430944E+01   1.9425396143E+01
  3.8458063312E+00   1.5587326226E+01   1.9450910594E+01
  7.6836234360E+00   3.4339789474E-01   2.2768215805E+01
  1.1578251659E+01   4.1237075304E+00   2.2632319241E+01
  7.2313315344E+00   3.5783852876E+00   3.8147062286E+00
  1.1223515895E+01   5.9019186925E-01   3.7263571906E+00
  8.1729386502E+00   2.2819558320E+01   7.6472981457E+00
  1.1416113787E+01   4.0719933097E+00   7.8564468326E+00
  1.1814463705E+01   5.2843242300E-01   1.1658720836E+01
  7.4430528849E+00   2.2931552975E+01   1.4608482631E+01
  1.1050841465E+01   3.5118417547E+00   1.5378642479E+01
  7.4594352171E+00   4.1250870358E+00   1.9387273272E+01
  1.1071143730E+01   2.2765579740E+01   1.9157507634E+01
  7.6863515727E+00   7.4397640836E+00   1.7455336276E-01
  1.2203931756E+01   1.1878917787E+01   2.3120206900E+01
  8.0662819122E+00   1.1082044963E+01   4.2878705063E+00
  1.1286048985E+01   7.7154356870E+00   3.7282797923E+00
  7.6959903046E+00   7.9300568636E+00   7.8499321842E+00
  1.1642214644E+01   1.1572406468E+01   8.1111993737E+00
  8.5080287261E+00   1.1468066670E+01   1.1612235624E+01
  1.1282729590E+01   7.6753748201E+00   1.1786226537E+01
  7.5966995374E+00   7.8100480123E+00   1.5131195817E+01
  1.1825250498E+01   1.1320401327E+01   1.5416276431E+01
  8.3785281162E+00   1.1505603163E+01   1.8704781678E+01
  1.1404275771E+01   7.7267509347E+00   1.8988604666E+01
  7.7110909530E+00   1.5350278203E+01   2.2852824674E+01
  1.1888642543E+01   1.9312632193E+01   2.3057227390E+01
  8.2030204470E+00   1.9336999924E+01   4.2170145340E+00
  1.1108028309E+01   1.5158455966E+01   3.7275432425E+00
  7.7388777382E+00   1.4919683316E+01   7.6012512517E+00
  1.2148472719E+01   1.9152392972E+01   7.8145747104E+00
  7.4109116949E+00   1.9213450653E+01   1.1371022861E+01
  1.1490707351E+01   1.5508209686E+01   1.1807247736E+01
  7.6274943503E+00   1.5222985928E+01   1.5089454476E+01
  1.1456260442E+01   1.8906272260E+01   1.5162763269E+01
  1.1807856480E+01   1.5335510617E+01   1.9059846137E+01
  1.5717204549E+01   7.7708296771E-01   2.2935103608E+01
  1.5375798077E+01   3.7405382246E+00   4.1533639422E+00
  1.9604443981E+01   2.2768081442E+01   4.3553974597E+00
  1.9433904925E+01   4.3076928326E+00   8.0312953131E+00
  1.5200880070E+01   4.1431498175E+00   1.1628880148E+01
  1.8708546800E+01   2.2861679099E+01   1.1646244985E+01
  1.5234225874E+01   3.5476155124E+00   1.8833446258E+01
  1.9307913676E+01   2.2660643919E+01   1.8906905247E+01
  1.5529991702E+01   7.9955103656E+00   2.2528251325E+01
  1.9458531957E+01   1.1354613128E+01   2.3227643089E+01
  1.5065259865E+01   1.1618900863E+01   3.9814447438E+00
  1.8827038892E+01   7.8387983487E+00   4.0362141626E+00
  1.5322591252E+01   7.8543484981E+00   7.5791237658E+00
  1.9229925320E+01   1.1371966984E+01   7.7726388367E+00
  1.5089216245E+01   1.1379779121E+01   1.1559204309E+01
  1.5459056932E+01   7.5994690221E+00   1.5158620901E+01
  1.8985172490E+01   1.1812822246E+01   1.5838129348E+01
  1.5807504226E+01   1.1518328578E+01   1.9101700174E+01
  1.9400850687E+01   7.5186617925E+00   1.9024403141E+01
  1.5664329716E+01   1.5692208840E+01   2.3069316091E+01
  1.8737527532E+01   1.9421482172E+01   2.2853993004E+01
  1.5468607103E+01   1.9170514269E+01   3.7576552559E+00
  1.9256606464E+01   1.5397837625E+01   3.6856144251E+00
  1.9066747692E+01   1.9399150929E+01   7.7997295327E+00
  1.5705891381E+01   1.9179261492E+01   1.1466686695E+01
  1.9134277396E+01   1.5252226311E+01   1.1475137428E+01
  1.5147406270E+01   1.5434612764E+01   1.5388218553E+01
  1.9436547612E+01   1.9259108274E+01   1.5322854671E+01
  1.5323765001E+01   1.8952037587E+01   1.9325473043E+01
  1.9624711192E+01   1.5423957231E+01   1.9420402160E+01
  4.1157137591E+00   1.4820876985E-01   3.9767579734E+00
  2.2728855404E+01   4.8164824039E-01   7.4336665701E+00
  3.8081667516E-01   3.5509071505E+00   1.8569184611E+01
  2.2849633410E+01   1.1546885367E+01   1.1518376741E+01
  3.4648538359E+00   1.8643293282E+01   7.8508577345E+00
  7.1725235179E+00   4.0550861450E+00   1.1397450751E+01
  7.7605875359E+00   1.8990058617E+01   1.9331682160E+01
  1.8519339648E+01   3.7912529772E+00   3.0778118557E-01
  1.5606537367E+01   2.2961695423E+01   7.5867559943E+00
  1.5233897990E+01   2.2608667608E+01   1.5863761682E+01
  1.9566020901E+01   3.8217767115E+00   1.5221698647E+01
  1.8819282158E+01   8.0272605826E+00   1.1693500581E+01
  1.5051987150E+01   1.5397678455E+01   7.7104156164E+00
:V(Bohr/atu):
 -7.5395170131E-05   9.3941195806E-04   4.5850608700E-04
 -8.8678224818E-05   1.2518082232E-05   2.8319584974E-04
  3.8016355576E-04  -3.6243689235E-04  -2.3377601347E-04
 -4.8823160150E-04  -4.1112272433E-04  -3.8892720061E-04
  3.7609400504E-05   3.6361690627E-04  -6.4415422908E-05
 -4.1114432639E-04   5.2766625611E-04  -1.1720370116E-04
 -7.8784922317E-04  -2.7483635554E-04  -5.0604200496E-05
 -1.2731447858E-04   2.4303380127E-04   3.9611491966E-04
  4.8766293572E-04  -8.5293772002E-05   1.6106297497E-04
 -4.3624443530E-04  -1.4034858897E-04  -3.9949136597E-04
 -1.1683301301E-04  -2.5206486237E-04  -2.1275857594E-04
 -1.3028010318E-04  -3.1498116460E-04   1.6786467264E-04
  4.8809235899E-04   5.6038759033E-05   3.1587295665E-04
  4.6710415341E-04   6.3269126649E-06   6.4992501460E-05
 -5.0100959523E-04   7.5873453203E-04  -3.6794060877E-04
  1.5127021480E-04  -4.7883698315E-04   4.3282004200E-05
 -4.9945190490E-04   5.2603003904E-04  -1.5474634472E-04
 -1.4690133708E-04   1.0869037995E-05  -5.5759179450E-04
  3.4846189973E-04  -2.5255362834E-04   2.9674834549E-04
  4.3786347654E-04   2.6722304992E-04  -4.9367263558E-04
 -2.1406779869E-04  -5.3863459676E-04   1.3854488154E-04
  4.8845453861E-04  -1.0890723692E-04  -7.5734239573E-05
  2.5197356278E-04   2.5678584779E-05  -4.5168750778E-04
 -1.8170684441E-04   1.1210972808E-04  -1.8093651176E-04
 -8.6637003646E-05   5.4514822653E-04   5.5622780788E-05
  4.6527230104E-05  -4.0045524603E-04  -6.3992282749E-04
 -3.5566173897E-04  -1.5474378828E-05  -5.4480347059E-05
  2.0346063352E-04  -4.6997831065E-04   8.3784762467E-04
 -2.1736434090E-04  -2.5716509454E-04   3.8048360807E-04
  1.5593963013E-04   3.9192213448E-04   3.9588419370E-04
  1.5341726078E-05   5.9396345879E-04   1.6474100065E-04
 -4.6334243127E-04   9.9206403584E-05  -3.7753213871E-04
  1.7501091243E-04   2.7693932531E-04  -1.6265033257E-04
 -5.0994223076E-04  -3.5673475839E-04  -2.3646110547E-04
 -2.2431990852E-04   3.0018360471E-04  -4.4196577481E-05
 -3.7315137408E-05  -1.5848089790E-04  -5.4552017654E-05
  1.9210706411E-04   3.1916481317E-04  -2.0513562256E-04
  4.6188398053E-04   4.3184413924E-04   9.2763420204E-05
 -2.3838197496E-04   8.9058801922E-05  -3.8494770872E-04
 -4.9717717574E-04  -2.6109777604E-04   3.4187809800E-06
 -1.8472013887E-04   2.0247670394E-04   1.8951377663E-04
  1.2285006796E-04  -2.3254969457E-04  -3.5931145057E-04
  2.1113235418E-04  -3.2316468294E-04   3.2635201530E-04
  2.8937714312E-04   2.1340061643E-04   1.4879617064E-04
  1.9062947328E-04  -7.8971821413E-05   4.6409447990E-04
 -2.7892187878E-04   7.0470738925E-05  -2.3701985467E-05
 -3.7954915583E-05   8.4121894203E-05  -6.4003646867E-06
  2.0406983695E-04   1.8556398751E-04   4.2736812445E-04
  6.1659477748E-04   8.2542820071E-05   7.1071540947E-05
 -5.6750022178E-05   1.5797178927E-05   8.4995645299E-06
  3.9749597323E-04  -1.1274307288E-05   1.5465558265E-04
  1.0859847292E-04  -2.4637011606E-04   1.1341251107E-04
  3.4567815154E-04   6.7092553171E-04  -3.7609510619E-04
 -2.0617192003E-04  -2.5737336475E-05   2.6617067500E-05
  2.7364388903E-04  -5.6285815319E-05   5.0515446633E-05
  5.1502504806E-05  -4.0096695508E-04  -2.3319764487E-04
  1.2898963463E-04   1.6768295247E-04   4.4421969549E-04
 -4.8382387104E-04  -1.5912696245E-04   2.8342124899E-05
  1.6768393824E-04  -5.6641331980E-04   9.8773741841E-05
  6.2226563610E-04   5.4083547251E-05  -2.7324992049E-04
 -1.0553538716E-04   6.3354693441E-04   2.2322553646E-04
  1.3754051770E-04   1.0660168716E-04   6.7130394638E-04
 -1.5131002716E-04   3.3794354326E-04  -6.1244158175E-05
  1.1698200235E-04  -3.6345855569E-04  -4.1505921928E-04
  1.5215953453E-04  -1.7662490606E-05  -8.3525013310E-05
  5.7696849066E-04   2.9751674326E-04   1.8228738545E-04
  2.2869222772E-04  -1.7524211831E-04   8.3045682314E-05
  4.5439135774E-04  -2.6908140824E-04   3.9921603245E-05
  1.5545724586E-05   4.7097903626E-04   3.5078045954E-04
 -5.4980046775E-04   1.5985047249E-04   4.5765527823E-04
 -4.9307152082E-04  -7.7524108599E-05  -1.4605856488E-04
 -5.0175774919E-04  -3.5518705647E-04  -2.8123414598E-04
  3.7538747658E-04  -1.0774471288E-04  -2.4244387550E-04
 -3.9229271500E-04  -2.0766392136E-05  -9.0955327495E-05
  7.0288472585E-04  -3.2835128494E-04   4.7675780543E-04
 -2.7786158393E-04  -4.9295763932E-05   3.2323442279E-04
 -1.7657877055E-04   6.7675436987E-05   3.3014975077E-05
  9.6581937749E-05   1.5913221116E-04  -1.4673941730E-04
  2.0615568658E-04  -1.6882676089E-05   3.5930098598E-04
 -2.5786042462E-04  -8.2016408258E-05   6.3398162603E-05
  2.8551372527E-04   3.7953348179E-04  -1.6523168135E-04
 -4.5316681042E-04   1.9728049274E-05   6.4669225020E-05
  5.1547620328E-04  -2.5051245137E-05   1.7111131620E-05
  1.1975689111E-04  -2.1526584902E-04   1.6253400361E-04
 -7.8810741401E-06  -2.7344259009E-04   2.1338827016E-04
 -5.7752502643E-04  -6.7365957468E-05  -3.9684908903E-04
  1.1466519272E-04  -2.6731828104E-04  -1.9851537726E-04
  2.1330984517E-04  -1.4110526687E-04  -6.7007551972E-05
  1.7148794235E-04   8.1472316093E-05   7.1653961802E-05
  9.4833819453E-05   1.0650030544E-04  -5.0667917618E-04
 -8.3160813867E-05   5.2814627214E-04  -1.6149029715E-04
  7.8567486202E-05  -5.0205954089E-05   5.9406871460E-05
 -2.4365297975E-04   3.7430867080E-05  -4.6928247850E-04
  3.7502203824E-04  -3.9241186116E-04  -2.0371031034E-04
  5.5458959974E-04  -5.5730023100E-04   1.3478099410E-04
 -3.6981482709E-06   3.9080076440E-05   3.0450033542E-04
 -1.5484205920E-04  -1.2827678554E-05   1.6586335774E-05
  1.7842311502E-04  -4.2685958781E-04  -7.2171282767E-04
 -3.0721504529E-04  -1.2835417433E-04  -2.0255744332E-04
 -1.8797223264E-04  -1.4982637240E-04   1.9276080889E-04
 -4.1013105859E-04   8.9507508821E-05  -1.6415460112E-04
  2.2759423480E-04   3.4787196756E-04   1.1297958174E-04
 -8.2413593088E-04   1.3207877248E-05   4.0874719411E-05
  1.0226160793E-04  -3.2395432533E-04  -5.3990698632E-04
 -1.0118310828E-04  -3.5978006614E-04   4.5074490814E-04
  2.4600387370E-04  -1.6761374855E-04   1.3725304169E-04
 -2.7745905306E-04   2.4359217296E-04   2.8018803037E-04
 -1.6975654004E-04  -6.4101460694E-05   1.1232868941E-04
:TEL(K):   1.5000000000E+03
:TIO(K):   1.5000000000E+03
