:MDSTEP: 20
:R(Bohr):
  3.7827678095E-01   2.7577317121E-01   1.5858841243E-01
  3.8307092758E+00   1.5185075920E+01   3.9858789816E+00
  7.8281950745E+00   1.5075590422E+01   1.7580512791E-01
  1.1293584727E+01   1.5189817555E+01   3.6484629030E+00
  1.0423254155E-01   7.7714209934E+00   1.5193223522E+01
  3.7323504950E+00   7.7628577620E+00   3.7785006822E+00
  7.3195779770E+00   7.4172989322E+00   1.0272035466E-01
  1.1415408068E+01   7.6740588015E+00   3.9386119308E+00
  5.3218152134E-01   1.5066872252E+01   7.6521167923E+00
  3.6533494467E+00   2.2809980133E-02   1.1191648009E+01
  7.6123834266E+00   3.4814175792E-02   7.7854454836E+00
  1.1446113810E+01   1.5069497216E+01   1.1568706253E+01
  2.0151606134E-01   7.6160152243E+00   7.7413474673E+00
  4.0758640745E+00   7.7500310576E+00   1.1381970516E+01
  7.3498146660E+00   7.8332129497E+00   7.5016316543E+00
  1.1418802929E+01   7.3199554066E+00   1.1383882257E+01
  5.8171533604E-02   3.8679323084E+00   3.8703840200E+00
  3.7228341056E+00   3.8211981505E+00   1.5203912179E+01
  7.7131780041E+00   3.6604663633E+00   3.5227608437E+00
  1.1318248080E+01   3.7739798741E+00   1.5097588160E+01
  3.0427805990E-01   1.1343323341E+01   3.8578526588E+00
  3.6496386977E+00   1.1438862024E+01   4.8044956361E-01
  7.7088052967E+00   1.1530637893E+01   3.8254282582E+00
  1.1100483209E+01   1.1393824361E+01   4.2438955812E-02
  9.5032872030E-02   3.7068366927E+00   1.1223535356E+01
  3.7964592693E+00   3.7032500767E+00   7.7924350678E+00
  7.7618551619E+00   3.7506323701E+00   1.1425026861E+01
  1.1301612855E+01   3.8912710805E+00   7.6992345023E+00
  2.8982660840E-01   1.1408931344E+01   1.1414781652E+01
  3.7184028262E+00   1.1216161807E+01   7.8656691969E+00
  7.7072060211E+00   1.1564860043E+01   1.1550325002E+01
  1.1489801633E+01   1.1416912387E+01   7.6961435808E+00
:V(Bohr/atu):
 -8.1378416685E-05   5.3222915348E-04   3.1138565585E-04
  9.8122282586E-05  -3.8848932974E-05   3.4832032694E-04
  4.0758777310E-04  -2.5316104636E-04  -2.8042618044E-04
 -1.9630538506E-04  -3.7831509451E-05  -2.7550487378E-04
  2.0602523601E-04   3.0712492603E-04  -3.2511374883E-05
 -1.4769112485E-04   3.1228317735E-04  -4.0525033086E-05
 -5.2967244970E-04  -3.5860717738E-04   2.1379166719E-04
  1.3272312518E-05   1.3346018814E-04   2.5946426587E-04
  1.7076354410E-04  -2.7461893992E-04   7.5130098625E-05
 -2.5076151931E-04   4.7137719585E-05  -3.8355778244E-04
  2.4451186121E-05   6.5021855749E-05  -2.4911450288E-04
  9.6402038255E-05  -2.6661108602E-04   3.2592322874E-04
  4.0123722827E-04   3.0676378074E-05   2.7343785320E-04
  5.1506092383E-04   2.6728384081E-04  -5.2278503288E-05
 -4.8410567295E-04   4.3470785775E-04  -1.9375189412E-04
  1.0822208135E-05  -5.7189650569E-04  -3.7380540811E-05
  1.3143693530E-04   1.1761126566E-04   1.3262031508E-04
 -1.6967368741E-04   3.9324611554E-05   4.1228862593E-05
  2.3687014266E-04  -2.8240340058E-04  -6.1005062683E-04
 -2.2925177271E-04  -2.5615000702E-05  -2.2104371556E-04
  8.1104798983E-05  -1.3121022414E-04   9.5079280279E-05
 -3.1733697052E-04   5.7808137416E-05   1.0150008453E-05
  2.4383557923E-04   2.4074739599E-04  -3.6524889030E-05
 -7.0209187419E-04  -4.7233057240E-06   1.3207312005E-04
  2.0232652110E-04  -1.7696416181E-04  -4.0055887397E-04
 -4.8814058320E-05  -1.9626782822E-04   4.2939822290E-04
  3.6321156385E-04  -9.0979389566E-05   1.5025917690E-05
 -2.1521230156E-04   1.7122151555E-04   2.0806420218E-04
  2.0814697032E-05   1.3280455585E-05  -4.9912039470E-05
 -2.5307609297E-04  -3.7998049727E-04  -4.7175674688E-04
  2.8346704190E-04   3.1053870598E-04   2.2857094476E-04
  1.2853231713E-04   2.2162710273E-05   2.4554341504E-04
:Pm_ion:
 -6.1104516878E+01   3.9963428408E+02   2.3380978445E+02
  7.3676963950E+01  -2.9170453018E+01   2.6154287787E+02
  3.0604495608E+02  -1.9009073978E+02  -2.1056327923E+02
 -1.4739959566E+02  -2.8406501403E+01  -2.0686802343E+02
  1.5469792881E+02   2.3061053521E+02  -2.4411778162E+01
 -1.1089666276E+02   2.3448370537E+02  -3.0428984355E+01
 -3.9771453489E+02  -2.6926695327E+02   1.6052949994E+02
  9.9657658295E+00   1.0021109590E+02   1.9482363087E+02
  1.2822102331E+02  -2.0620280331E+02   5.6412849580E+01
 -1.8828900970E+02   3.5394244559E+01  -2.8800158501E+02
  1.8359633622E+01   4.8822885034E+01  -1.8705231640E+02
  7.2385286094E+01  -2.0018995539E+02   2.4472559485E+02
  3.0127652989E+02   2.3033936247E+01   2.0531596210E+02
  3.8674319550E+02   2.0069510599E+02  -3.9254298826E+01
 -3.6349986236E+02   3.2640858243E+02  -1.4548225889E+02
  8.1260588078E+00  -4.2941926260E+02  -2.8067883106E+01
  1.0272809190E+02   9.1922265833E+01   1.0365299437E+02
 -1.3261305974E+02   3.0735213814E+01   3.2223532720E+01
  1.8513226688E+02  -2.2072001618E+02  -4.7680156808E+02
 -1.7917792378E+02  -2.0020096635E+01  -1.7276269470E+02
  6.3389649372E+01  -1.0255089966E+02   7.4311783212E+01
 -2.4802329266E+02   4.5181513396E+01   7.9330136448E+00
  1.9057629222E+02   1.8816263908E+02  -2.8547014948E+01
 -5.4873889450E+02  -3.6916273448E+00   1.0322531930E+02
  1.5813376511E+02  -1.3831112720E+02  -3.1306762229E+02
 -3.8151947605E+01  -1.5339842981E+02   3.3560779550E+02
  2.8387782189E+02  -7.1107402731E+01   1.1743912393E+01
 -1.6820499536E+02   1.3382280669E+02   1.6261820495E+02
  1.6268289463E+01   1.0379699273E+01  -3.9010104471E+01
 -1.9779846568E+02  -2.9698403538E+02  -3.6871424563E+02
  2.2155133383E+02   2.4270992513E+02   1.7864580428E+02
  1.0045790900E+02   1.7321865672E+01   1.9191109750E+02
:NPT_NP_QMASS: 500
:NPT_NP_BMASS: 0.1
:NPT_NP_SNOSE[0]: 1.00620761463942
:NPT_NP_SNOSE[1]: 4.28455401924522e-05
:NPT_NP_SNOSE[2]: 1.0051388092019
:NPT_NP_INIT_Hamiltonian: -103.682126496114
:KE: 0.164826309647071
:Kbaro: 0.016966784086827
:Ubaro: 0
:kinetic_stress: 
 0.000273760628000005 -9.09750341988197e-07 3.94379926444608e-06 
 -9.09750341988197e-07 0.000209936358743251 4.53803829818079e-05 
 3.94379926444608e-06 4.53803829818079e-05 0.000230612779741152
:Pm_metric_tensor: 
 0.519235811582837 0.000985634825684522 -0.00374618167460646 
 0.000985634825684522 0.502333738763968 0.000417945931660174 
 -0.00374618167460646 0.000417945931660174 0.516417798251566
:LATVEC_SCALE:   1.5208636471E+01   1.5208636471E+01   1.5208636471E+01
:LatVec: 
   1.0000000000E+00   0.0000000000E+00   0.0000000000E+00
   0.0000000000E+00   1.0000000000E+00   0.0000000000E+00
   0.0000000000E+00   0.0000000000E+00   1.0000000000E+00
:INITIAL_ANGLES:   9.0000000000E+01   9.0000000000E+01   9.0000000000E+01
:ROTATION_MATRIX: 
   1.0000000000E+00   0.0000000000E+00   0.0000000000E+00
   0.0000000000E+00   1.0000000000E+00   0.0000000000E+00
   0.0000000000E+00   0.0000000000E+00   1.0000000000E+00
:TTHRMI(K): 1120
:EXTERNAL_PRESSURE: 0
:EXTERNAL_STRESS: 0 0 0 0 0 0 GPa
:TEL(K):   1.1200000000E+03
:TIO(K):   1.1193125165E+03
