:MDSTEP: 30
:R(Bohr):
  3.6165678404E-01   4.0722087509E-01   2.3658760038E-01
  3.9136333693E+00   1.5380337645E+01   4.1216150361E+00
  8.0240365643E+00   1.5218686989E+01   1.0470523439E-01
  1.1403045481E+01   1.5384191817E+01   3.6354750335E+00
  1.5531091546E-01   7.9474008108E+00   1.5389482228E+01
  3.7440013910E+00   7.9450658976E+00   3.8201832825E+00
  7.2945736977E+00   7.4317295323E+00   1.5708618045E-01
  1.1572450273E+01   7.8107498949E+00   4.0546123257E+00
  5.6660759288E-01   1.5202278603E+01   7.7681499422E+00
  3.6496842591E+00   3.2979062370E-02   1.1258089161E+01
  7.7219580874E+00   5.1237419985E-02   7.8301244903E+00
  1.1628223706E+01   1.5207149201E+01   1.1803872186E+01
  3.0117744758E-01   7.7277493458E+00   7.9132501409E+00
  4.2533318429E+00   7.9165371776E+00   1.1523279364E+01
  7.3353859711E+00   8.0419061781E+00   7.5545520178E+00
  1.1573909413E+01   7.2769747508E+00   1.1529636057E+01
  9.7001954696E-02   3.9474172261E+00   3.9537446626E+00
  3.7279052907E+00   3.8826626911E+00   1.2722939494E-02
  7.8767220211E+00   3.6381509794E+00   3.4107081655E+00
  1.1403300285E+01   3.8253361064E+00   1.5247251309E+01
  3.4196452830E-01   1.1461888844E+01   3.9340654294E+00
  3.6203312468E+00   1.1607056525E+01   4.9950149968E-01
  7.8753433069E+00   1.1744148657E+01   3.8569809975E+00
  1.1063280927E+01   1.1548183221E+01   7.9678071535E-02
  1.4793105238E-01   3.7155678149E+00   1.1268166932E+01
  3.8284969595E+00   3.7042332372E+00   8.0093553107E+00
  7.9648829525E+00   3.7801282618E+00   1.1579763158E+01
  1.1399519581E+01   3.9841050126E+00   7.8609408861E+00
  3.0555458310E-01   1.1568655453E+01   1.1547184466E+01
  3.6898913499E+00   1.1275310936E+01   7.8543597933E+00
  7.8926954280E+00   1.1797400710E+01   1.1756287601E+01
  1.1673256647E+01   1.1575579491E+01   7.8677159637E+00
:V(Bohr/atu):
 -8.9738942313E-05   4.9519544174E-04   2.9810534763E-04
  1.4883762509E-04  -3.6057807717E-05   3.1262881365E-04
  3.2130211585E-04  -2.2729467934E-04  -3.0636910619E-04
 -1.4849874964E-04  -4.3136422572E-05  -2.2598860640E-04
  1.9331246834E-04   2.6930433967E-04  -3.3792551533E-05
 -1.6109879292E-04   3.1162558548E-04  -3.5080103026E-05
 -4.6718307041E-04  -3.2916700911E-04   2.0984156858E-04
  1.4559188391E-05   1.3536300129E-04   2.4883194190E-04
  5.6746506766E-05  -2.6854865193E-04   3.1647604698E-05
 -1.7815035004E-04   3.0845656584E-05  -2.9643766991E-04
  3.1314666934E-05   6.4753174237E-05  -2.3267776625E-04
  1.2751014320E-04  -2.5855384982E-04   3.1045420691E-04
  3.7558018367E-04   4.1721856888E-05   2.6964510215E-04
  4.7348898726E-04   2.3499608219E-04  -4.2215551493E-05
 -4.2772298922E-04   3.9593255645E-04  -1.9446469239E-04
  2.9681844571E-06  -5.6307374556E-04  -2.4011876757E-05
  1.7279339330E-04   1.0491929303E-04   1.1805116483E-04
 -1.9138523025E-04   4.1663278820E-05   9.3096090148E-05
  2.4004919092E-04  -2.9307435054E-04  -6.6269893647E-04
 -3.0544892925E-04   2.6035314186E-05  -2.0967024239E-04
  1.7768370364E-04  -1.4260918181E-04   1.0070695914E-04
 -3.1094577013E-04   5.6984812416E-05   8.3449531968E-05
  2.5488812452E-04   2.2750594369E-04  -1.1326399376E-04
 -7.8187201857E-04   8.1848239432E-06   1.5732279427E-04
  2.0902699192E-04  -1.5525224859E-04  -4.4874801146E-04
 -9.8660140608E-05  -1.9544398251E-04   4.6123380639E-04
  4.2161407795E-04  -8.0060968942E-05  -4.9133632932E-06
 -2.2008942434E-04   1.5361241364E-04   2.5488041443E-04
  6.8172321620E-05   3.5633249189E-05  -1.1258968763E-04
 -3.6714054200E-04  -3.5596875160E-04  -4.7036057632E-04
  3.6140126665E-04   3.0701216985E-04   1.8258610298E-04
  1.0742092291E-04   1.6928621706E-05   2.9219998835E-04
:Pm_ion:
 -6.8937512275E+01   3.8040945173E+02   2.2900471671E+02
  1.1433715779E+02  -2.7699630707E+01   2.4016165249E+02
  2.4682448873E+02  -1.7460791651E+02  -2.3535294126E+02
 -1.1407683345E+02  -3.3137427118E+01  -1.7360459045E+02
  1.4850276051E+02   2.0687976416E+02  -2.5959459473E+01
 -1.2375619467E+02   2.3939097198E+02  -2.6948557345E+01
 -3.5889033034E+02  -2.5286630471E+02   1.6120042578E+02
  1.1184377736E+01   1.0398594326E+02   1.9115285524E+02
  4.3592702410E+01  -2.0629924437E+02   2.4311709957E+01
 -1.3685521164E+02   2.3695652909E+01  -2.2772360562E+02
  2.4055946956E+01   4.9743429428E+01  -1.7874320728E+02
  9.7953372700E+01  -1.9862123106E+02   2.3849111821E+02
  2.8852093478E+02   3.2050756864E+01   2.0714153812E+02
  3.6373453966E+02   1.8052413905E+02  -3.2430013373E+01
 -3.2857707100E+02   3.0415564043E+02  -1.4938789976E+02
  2.2801611784E+00  -4.3255360768E+02  -1.8445938920E+01
  1.3816864942E+02   8.3895319948E+01   9.4395796594E+01
 -1.5303501064E+02   3.3314693664E+01   7.4441278086E+01
  1.9194757317E+02  -2.3434742741E+02  -5.2990577519E+02
 -2.4424235913E+02   2.0818297098E+01  -1.6765602933E+02
  1.4207902795E+02  -1.1403282076E+02   8.0527063367E+01
 -2.4863773019E+02   4.5566062560E+01   6.6727719774E+01
  2.0381304658E+02   1.8191777113E+02  -9.0567890054E+01
 -6.2519867666E+02   6.5447297977E+00   1.2579808517E+02
  1.6714167489E+02  -1.2414244027E+02  -3.5882683643E+02
 -7.8890391115E+01  -1.5628046064E+02   3.6881069860E+02
  3.3713006392E+02  -6.4018164924E+01  -3.9288120765E+00
 -1.7598739125E+02   1.2283119928E+02   2.0380688146E+02
  5.4511792530E+01   2.8492975460E+01  -9.0028702959E+01
 -2.9357206237E+02  -2.8463890144E+02  -3.7610862505E+02
  2.8898283643E+02   2.4549235392E+02   1.4599907306E+02
  8.5895667392E+01   1.3536424935E+01   2.3364827196E+02
:NPT_NP_QMASS: 500
:NPT_NP_BMASS: 0.1
:NPT_NP_SNOSE[0]: 1.01616982418515
:NPT_NP_SNOSE[1]: 3.40301417354084e-05
:NPT_NP_SNOSE[2]: 1.01531242524153
:NPT_NP_INIT_Hamiltonian: -103.681526752703
:KE: 0.164494502207738
:Kbaro: 0.0245973100055284
:Ubaro: 0
:kinetic_stress: 
 0.000277999097682192 5.72227290433107e-06 -8.71934700611063e-06 
 5.72227290433107e-06 0.000184340665024088 4.31207586177133e-05 
 -8.71934700611063e-06 4.31207586177133e-05 0.000231999111322114
:Pm_metric_tensor: 
 0.631427940169912 0.00135145992692078 -0.00480238177288506 
 0.00135145992692078 0.619538843859735 0.000420462436839683 
 -0.00480238177288506 0.000420462436839683 0.626672161341598
:LATVEC_SCALE:   1.5413396532E+01   1.5413396532E+01   1.5413396532E+01
:LatVec: 
   1.0000000000E+00   0.0000000000E+00   0.0000000000E+00
   0.0000000000E+00   1.0000000000E+00   0.0000000000E+00
   0.0000000000E+00   0.0000000000E+00   1.0000000000E+00
:INITIAL_ANGLES:   9.0000000000E+01   9.0000000000E+01   9.0000000000E+01
:ROTATION_MATRIX: 
   1.0000000000E+00   0.0000000000E+00   0.0000000000E+00
   0.0000000000E+00   1.0000000000E+00   0.0000000000E+00
   0.0000000000E+00   0.0000000000E+00   1.0000000000E+00
:TTHRMI(K): 1120
:EXTERNAL_PRESSURE: 0
:EXTERNAL_STRESS: 0 0 0 0 0 0 GPa
:TEL(K):   1.1200000000E+03
:TIO(K):   1.1170592584E+03
