:MDSTEP: 10
:R(Bohr):
  1.8869245618E+01   2.8847597147E-01   1.8310094474E-01
  1.1259535911E-02   1.8808292682E+01   6.5058761240E+00
  2.8904031965E-01   1.8685468254E+01   1.2452248374E+01
  1.8765458552E+01   6.2335266006E+00   1.8686660222E+01
  1.4190639775E-01   6.4601205169E+00   6.2779686910E+00
  1.8833804126E+01   6.4478164883E+00   1.2557616884E+01
  1.8571442619E+01   1.2335487576E+01   1.1012634382E-01
  4.2744588310E-02   1.2638563188E+01   6.4534017823E+00
  2.1444991145E-01   1.2386219975E+01   1.2641891083E+01
  6.1100530395E+00   1.8866033227E+01   1.8614976115E+01
  6.3099922515E+00   5.9362476389E-03   6.1623191421E+00
  6.3107826239E+00   1.8675808858E+01   1.2765006069E+01
  6.4968609662E+00   6.2734058068E+00   1.5921062175E-01
  6.5946931518E+00   6.4347424970E+00   6.2696573867E+00
  5.9787765160E+00   6.5308909720E+00   1.2456173663E+01
  6.2959942015E+00   1.2234087071E+01   1.8849468598E+01
  6.1349235360E+00   1.2832447079E+01   6.2800088510E+00
  6.2079392245E+00   1.2587116978E+01   1.2402759078E+01
  1.2675541251E+01   7.4888063041E-02   1.7331285159E-01
  1.2428226524E+01   1.8858856803E+01   6.1792604146E+00
:V(Bohr/atu):
 -3.4703517443E-05   7.1663179457E-04   4.4890149854E-04
  2.2912683039E-05  -1.7005649611E-04   5.2654525669E-04
  7.4367531102E-04  -4.6791977671E-04  -3.2411584254E-04
 -2.3354469665E-04  -1.4601895211E-04  -4.5435088032E-04
  3.8806728098E-04   4.1299124229E-04  -2.6704624273E-05
 -5.3143829017E-05   3.9286063046E-04  -5.6943823491E-05
 -7.0100113016E-04  -6.1432620006E-04   2.6724965624E-04
  1.5588764554E-04   1.3665995022E-04   3.9397669519E-04
  5.7179124701E-04  -4.8210673356E-04   1.4232552717E-04
 -4.4897384989E-04  -1.2400235620E-05  -6.3599452795E-04
  6.4102956490E-05   6.6291550435E-06  -3.1618389033E-04
 -4.4560572307E-07  -4.9509922280E-04   4.5731823203E-04
  4.5313310162E-04  -3.9500600039E-05   3.9339929042E-04
  6.8751340409E-04   3.4265775670E-04  -5.2189524878E-05
 -8.1639018685E-04   5.9329858897E-04  -3.1453578570E-04
 -3.5788837377E-05  -8.5851150039E-04  -5.2718777713E-05
 -4.3315286241E-04   6.1234284486E-04  -2.3396149538E-05
 -2.6041759604E-04   8.2402292153E-06  -4.3988199860E-04
  2.5197608626E-04   1.7873865166E-04   5.4466262787E-04
 -4.0814938747E-04  -3.5805630497E-05  -3.9348049386E-04
:Pm_ion:
 -3.2234630435E+01   6.6558251961E+02   4.1687882599E+02
  2.1275046111E+01  -1.5794111574E+02   4.8899867717E+02
  6.9075825686E+02  -4.3460819326E+02  -3.0095926929E+02
 -2.1692201914E+02  -1.3561146112E+02  -4.2195966669E+02
  3.6045657567E+02   3.8355932612E+02  -2.4785479826E+01
 -4.9359028893E+01   3.6487530058E+02  -5.2890175119E+01
 -6.5112709002E+02  -5.7054191110E+02   2.4816303256E+02
  1.4479145600E+02   1.2692122238E+02   3.6588716854E+02
  5.3109944214E+02  -4.4777824315E+02   1.3221013530E+02
 -4.1701887793E+02  -1.1505870015E+01  -5.9066207608E+02
  5.9545297694E+01   6.1541641295E+00  -2.9363261843E+02
 -4.2246484348E-01  -4.5982791571E+02   4.2471103766E+02
  4.2088464898E+02  -3.6698460953E+01   3.6536791988E+02
  6.3859482707E+02   3.1822764326E+02  -4.8437098302E+01
 -7.5829070815E+02   5.5105548289E+02  -2.9215308998E+02
 -3.3247232805E+01  -7.9735181583E+02  -4.8951120558E+01
 -4.0232668507E+02   5.6873295007E+02  -2.1756538432E+01
 -2.4188187735E+02   7.6593831933E+00  -4.0852574018E+02
  1.0418483192E+02   7.3895935182E+01   2.2517405876E+02
 -1.6875976782E+02  -1.4798940532E+01  -1.6267798298E+02
:NPH_BMASS: 0.5
:NPH_INIT_Hamiltonian: -52.0747007077977
:KE: 0.233794699584189
:Kbaro: 0.00355008419807194
:Ubaro: 0.0228575640252555
:kinetic_stress: 
 0.000242527583063193 -3.43275842910353e-05 5.05887776768219e-05 
 -3.43275842910353e-05 0.000247062934688973 -8.69167289797019e-06 
 5.05887776768219e-05 -8.69167289797019e-06 0.000166319550550945
:Pm_metric_tensor: 
 -0.568152352818234 -0.0108768362026853 0.0192653306074204 
 -0.0108768362026853 -0.647590284530567 -0.00477201766976499 
 0.0192653306074204 -0.00477201766976499 -0.721568026146367
:LATVEC_SCALE:   1.8877947648E+01   1.8875324027E+01   1.8872890269E+01
:LatVec: 
   1.0000000000E+00   0.0000000000E+00   0.0000000000E+00
  -3.7830325968E-05   9.9999999928E-01   0.0000000000E+00
   6.6667433144E-05  -1.5524986159E-05   9.9999999766E-01
:INITIAL_ANGLES:   9.0000000000E+01   9.0000000000E+01   9.0000000000E+01
:ROTATION_MATRIX: 
   1.0000000000E+00   0.0000000000E+00   0.0000000000E+00
   0.0000000000E+00   1.0000000000E+00   0.0000000000E+00
   0.0000000000E+00   0.0000000000E+00   1.0000000000E+00
:TTHRMI(K): 2400
:EXTERNAL_PRESSURE: 0.1
:EXTERNAL_STRESS: 0 0 0 0 0 0 GPa
:TEL(K):   2.4000000000E+03
:TIO(K):   2.5904044583E+03
