:MDSTEP: 10
:R(Bohr):
  1.8869245612E+01   2.8847597330E-01   1.8310094914E-01
  1.1259527857E-02   1.8808292684E+01   6.5058761159E+00
  2.8904030707E-01   1.8685468257E+01   1.2452248375E+01
  1.8765458530E+01   6.2335266090E+00   1.8686660224E+01
  1.4190636846E-01   6.4601205247E+00   6.2779686934E+00
  1.8833804120E+01   6.4478164999E+00   1.2557616882E+01
  1.8571442598E+01   1.2335487567E+01   1.1012633584E-01
  4.2744571469E-02   1.2638563181E+01   6.4534017856E+00
  2.1444989920E-01   1.2386219964E+01   1.2641891086E+01
  6.1100530504E+00   1.8866033225E+01   1.8614976124E+01
  6.3099922656E+00   5.9362467910E-03   6.1623191339E+00
  6.3107826339E+00   1.8675808861E+01   1.2765006070E+01
  6.4968609833E+00   6.2734058138E+00   1.5921062548E-01
  6.5946931804E+00   6.4347424999E+00   6.2696573885E+00
  5.9787765324E+00   6.5308909831E+00   1.2456173657E+01
  6.2959942272E+00   1.2234087069E+01   1.8849468598E+01
  6.1349235585E+00   1.2832447077E+01   6.2800088516E+00
  6.2079392371E+00   1.2587116966E+01   1.2402759080E+01
  1.2675541246E+01   7.4888049234E-02   1.7331283065E-01
  1.2428226461E+01   1.8858856818E+01   6.1792604827E+00
:V(Bohr/atu):
 -3.4703530003E-05   7.1663180322E-04   4.4890151054E-04
  2.2912659572E-05  -1.7005648922E-04   5.2654522950E-04
  7.4367527240E-04  -4.6791976971E-04  -3.2411584566E-04
 -2.3354475296E-04  -1.4601893042E-04  -4.5435088208E-04
  3.8806720561E-04   4.1299125657E-04  -2.6704620279E-05
 -5.3143834018E-05   3.9286066042E-04  -5.6943834265E-05
 -7.0100118324E-04  -6.1432622931E-04   2.6724962925E-04
  1.5588759853E-04   1.3665992797E-04   3.9397670791E-04
  5.7179121758E-04  -4.8210676840E-04   1.4232552762E-04
 -4.4897382220E-04  -1.2400239225E-05  -6.3599450859E-04
  6.4102997839E-05   6.6291562503E-06  -3.1618391256E-04
 -4.4557694722E-07  -4.9509920916E-04   4.5731822876E-04
  4.5313314602E-04  -3.9500579891E-05   3.9339929981E-04
  6.8751347507E-04   3.4265775807E-04  -5.2189518185E-05
 -8.1639014538E-04   5.9329861495E-04  -3.1453581237E-04
 -3.5788775752E-05  -8.5851151091E-04  -5.2718788676E-05
 -4.3315280051E-04   6.1234283584E-04  -2.3396141404E-05
 -2.6041757003E-04   8.2401917631E-06  -4.3988200274E-04
  2.5197614167E-04   1.7873860314E-04   5.4466256757E-04
 -4.0814958520E-04  -3.5805590676E-05  -3.9348028901E-04
:Pm_ion:
 -3.2234642101E+01   6.6558252771E+02   4.1687883716E+02
  2.1275024312E+01  -1.5794110936E+02   4.8899865198E+02
  6.9075822095E+02  -4.3460818679E+02  -3.0095927219E+02
 -2.1692207143E+02  -1.3561144099E+02  -4.2195966838E+02
  3.6045650564E+02   3.8355933942E+02  -2.4785476133E+01
 -4.9359033536E+01   3.6487532844E+02  -5.2890185145E+01
 -6.5112713928E+02  -5.7054193833E+02   2.4816300754E+02
  1.4479141232E+02   1.2692120173E+02   3.6588718039E+02
  5.3109941478E+02  -4.4777827554E+02   1.3221013576E+02
 -4.1701885219E+02  -1.1505873371E+01  -5.9066205817E+02
  5.9545336099E+01   6.1541652488E+00  -2.9363263910E+02
 -4.2243811555E-01  -4.5982790308E+02   4.2471103468E+02
  4.2088469019E+02  -3.6698442240E+01   3.6536792865E+02
  6.3859489297E+02   3.1822764457E+02  -4.8437092092E+01
 -7.5829066959E+02   5.5105550706E+02  -2.9215311481E+02
 -3.3247175562E+01  -7.9735182568E+02  -4.8951130712E+01
 -4.0232662755E+02   5.6873294173E+02  -2.1756530904E+01
 -2.4188185318E+02   7.6593484055E+00  -4.0852574407E+02
  1.0418485482E+02   7.3895915130E+01   2.2517403386E+02
 -1.6875984957E+02  -1.4798924069E+01  -1.6267789832E+02
:NPH_BMASS: 0.5
:NPH_INIT_Hamiltonian: -52.0747006874436
:KE: 0.23379469972871
:Kbaro: 0.00355008402863207
:Ubaro: 0.0228575640293784
:kinetic_stress: 
 0.000242527583095491 -3.43275810336356e-05 5.05887773577497e-05 
 -3.43275810336356e-05 0.000247062942235261 -8.69167273900375e-06 
 5.05887773577497e-05 -8.69167273900375e-06 0.000166319543311923
:Pm_metric_tensor: 
 -0.568152381376572 -0.0108768339664737 0.0192653347295116 
 -0.0108768339664737 -0.647590257656634 -0.00477202464380651 
 0.0192653347295116 -0.00477202464380651 -0.721567985782245
:LATVEC_SCALE:   1.8877947647E+01   1.8875324029E+01   1.8872890272E+01
:LatVec: 
   1.0000000000E+00   0.0000000000E+00   0.0000000000E+00
  -3.7830316937E-05   9.9999999928E-01   0.0000000000E+00
   6.6667449307E-05  -1.5525028405E-05   9.9999999766E-01
:INITIAL_ANGLES:   9.0000000000E+01   9.0000000000E+01   9.0000000000E+01
:ROTATION_MATRIX: 
   1.0000000000E+00   0.0000000000E+00   0.0000000000E+00
   0.0000000000E+00   1.0000000000E+00   0.0000000000E+00
   0.0000000000E+00   0.0000000000E+00   1.0000000000E+00
:TTHRMI(K): 2400
:EXTERNAL_PRESSURE: 0.1
:EXTERNAL_STRESS: 0 0 0 0 0 0 GPa
:TEL(K):   2.4000000000E+03
:TIO(K):   2.5904044599E+03
