:MDSTEP: 100
:R(Bohr):
  1.7912376935E-02   5.8328078695E-01   6.0756440902E-01
  4.1858319586E+00   3.6813048776E+00   8.0100636054E-01
  4.4839793334E+00   6.0821526511E-01   3.6813796492E+00
  7.2559952273E+00   3.5549716483E+00   3.7592681128E+00
:V(Bohr/atu):
 -1.4642144825E-04  -1.9020792722E-04   7.7540963615E-05
  1.5251118104E-04   7.9497085050E-06   3.4765169223E-04
  5.1745165269E-04   6.1476713757E-04  -3.8444662564E-04
 -5.2330211947E-04  -4.3966985628E-04  -2.4040182750E-05
:NPT_NP_QMASS: 500
:NPT_NP_BMASS: 10
:SNOSE[1]: 0.00221859518343291
:Pm_metric_tensor: -5.42429566830208 0.0605519031219739 0.010638252470786 0.0605519031219739 -5.38895229981697 -0.0339158993832999 0.010638252470786 -0.0339158993832999 -5.37234343362923
:SNOSE[0]: 7.47644380240503
:lattice_avg_velo: -0.00399502866217081 0 0 8.9193732537444e-05 -0.00396899804386569 0 1.56702827924949e-05 -4.99585562532572e-05 -0.00395676550704917
:LATVEC_SCALE:   7.6625560288E+00   7.6625560288E+00   7.6625560288E+00
:LatVec:   1.0000000000E+00   0.0000000000E+00   0.0000000000E+00
   0.0000000000E+00   1.0000000000E+00   0.0000000000E+00
   0.0000000000E+00   0.0000000000E+00   1.0000000000E+00
:ANGLES:   9.0000000000E+01   9.0000000000E+01   9.0000000000E+01
:TTHRMI(K): 1000
TARGET_STRESS: 12 12 12 0 0 0 GPa
:NPT_NP_ini_Hamiltonian: -12.6315319961283
:TEL(K): 1000
:TIO(K): 2350.55991650917
