:MDSTEP: 10
:R(Bohr):
  1.0504575310E-01   1.8976262085E-01   1.7096124756E-01
  5.2850654622E+00   5.2679997540E+00   1.8002858675E-01
  1.0530495095E+01   2.5932809587E+01   1.5608174395E+01
  6.8236026210E-02   5.2647216752E+00   5.2389714285E+00
  5.3129636095E+00   1.0501316418E+01   5.2859809182E+00
  1.0437355439E+01   1.5673106996E+01   5.2826585193E+00
  1.5542739159E+01   2.5923673153E+01   1.0505025858E+01
  5.2854095025E+00   1.5653986952E+01   1.0518422005E+01
  1.0508571061E+01   2.0761375076E+01   1.0491134371E+01
  5.1867757848E+00   1.0690105191E-01   5.1825004370E+00
  1.0414327499E+01   5.2869671758E+00   5.2176719870E+00
  1.5599797279E+01   1.0407036126E+01   5.3021940891E+00
  5.2994902378E+00   5.2733686962E+00   1.0464448295E+01
  1.0500813208E+01   1.0492477989E+01   1.0414898871E+01
  1.5509502911E+01   1.5696085789E+01   1.0388078451E+01
  5.2447832500E+00   1.0367795318E+01   1.5599504254E+01
  1.0376087900E+01   1.5706250007E+01   1.5602373060E+01
  1.5572742423E+01   2.0815717252E+01   1.5557170805E+01
  2.6110798803E+00   2.6105142916E+00   2.6138536415E+00
  7.7425416788E+00   7.7681913825E+00   2.5813307650E+00
  1.2974581597E+01   1.2892375559E+01   2.5087609405E+00
  2.5696203970E+00   7.7448034521E+00   7.7270447095E+00
  7.7560748238E+00   1.2911622324E+01   7.7869019309E+00
  1.2898420042E+01   1.8120472981E+01   7.7418392793E+00
  2.6173226191E+00   1.2981637703E+01   1.2968127434E+01
  7.6817948745E+00   1.8109835171E+01   1.2947405122E+01
  1.2973498633E+01   2.3259702674E+01   1.2889301387E+01
  7.7248786192E+00   2.5524982024E+00   7.7736518701E+00
  1.2942396254E+01   7.7423138220E+00   7.7331420173E+00
  1.8042180033E+01   1.2966900654E+01   7.7548817301E+00
  7.7110205698E+00   7.7561323306E+00   1.2906839185E+01
  1.2883047369E+01   1.2870560599E+01   1.2807422140E+01
  1.8095609133E+01   1.8158436856E+01   1.2951434929E+01
  7.7585406631E+00   1.2941924258E+01   1.8092698519E+01
  1.2922171472E+01   1.8158188047E+01   1.8082808794E+01
  1.8052421570E+01   2.3295477187E+01   1.8086555739E+01
:V(Bohr/atu):
 -4.0465749188E-05   4.7448095089E-04   2.6050407758E-04
 -9.4855332311E-06  -1.0631267533E-04   3.1549436419E-04
  4.0100427300E-04  -3.1459121254E-04  -2.5231054819E-04
 -2.5863263382E-04  -8.8904500490E-05  -3.3987212987E-04
  1.5408737335E-04   2.7926784423E-04  -6.2827596027E-05
 -1.5340377407E-04   2.4534721037E-04  -8.6069724617E-05
 -5.5631810579E-04  -3.9421163457E-04   1.4754620613E-04
 -9.7415394371E-06   8.4130614525E-05   2.1628214013E-04
  2.6635025328E-04  -3.2878794523E-04   6.0947092362E-05
 -3.0931599264E-04  -2.6884185115E-05  -4.2822976986E-04
 -1.9888845650E-06   2.7725698830E-06  -2.2105470883E-04
  5.2701695285E-05  -3.3386449808E-04   2.8118957381E-04
  3.5258941810E-04  -4.5318653668E-05   2.3503046210E-04
  5.0472900579E-04   2.0889412981E-04  -6.4684220568E-05
 -4.8188192000E-04   3.9036372757E-04  -2.0861761319E-04
  3.4784278074E-05  -5.8106833598E-04  -5.2207383585E-05
 -2.2458041234E-04   3.9604265485E-04  -4.0584632110E-05
 -1.0637809368E-04  -4.9041055792E-06  -3.0463647214E-04
  1.3969643207E-04   1.6119737783E-04   1.5866413334E-04
 -1.1797550645E-04   6.0367648739E-05  -3.5027540219E-05
  2.1543169383E-04  -2.5646926312E-04  -4.6484803912E-04
 -1.0590811859E-04  -4.9789952469E-05  -1.7368657069E-04
 -3.8577404992E-05  -9.5644873578E-05   1.8873145511E-04
 -2.4369315338E-04   9.8961770936E-05  -8.8045437159E-05
  1.6986033301E-04   2.5702385615E-04   1.6029017514E-04
 -4.7978059452E-04  -8.9848960819E-06   4.1639006657E-05
  2.0217761367E-04  -1.7927627865E-04  -3.0632618948E-04
  4.9503503174E-05  -2.0060093967E-04   3.4079777040E-04
  3.0617100512E-04  -1.1206761626E-04   1.0546441816E-04
 -1.5005301880E-04   1.8129897844E-04   2.3885101078E-04
 -2.3334870043E-05   1.8676633969E-05   1.3102109726E-04
 -3.6734818409E-05  -3.4021623591E-04  -4.4648760735E-04
  1.6437587907E-04   3.1113116774E-04   3.9275441558E-04
  2.5127412852E-04   1.4436003702E-05   1.3547092769E-04
  1.8966891560E-04   2.6324647233E-04   8.1096612093E-05
 -9.0364512864E-05   2.6131521663E-05   1.0600337113E-04
:Pm_ion:
  3.4466826713E+02   5.8355427954E+02   1.1662860605E+02
 -9.1981722871E+01   1.6604305002E+02   1.6210188246E+02
  6.8563214664E+01  -4.5013566849E+02   7.8726760684E+01
 -2.7592607215E+02  -3.4037092745E+02  -3.1707583163E+02
  3.4412726919E+02   1.7185064919E+02   4.8377523559E+01
  7.3054101346E+01   1.2650155973E+02  -1.2683297634E+02
 -7.5477273525E+02  -1.9581781551E+02  -2.1659168753E+02
  5.9064249159E+01   2.3849891601E+02   1.0942969440E+02
 -4.9642535058E+01  -2.1271190283E+02   1.7334693760E+02
 -2.6690669919E+02  -3.6126274193E+02  -3.9072709644E+02
  6.3764415520E-01  -1.7328339710E+02  -1.1816166645E+02
 -2.2331780291E+02  -4.1877857448E+01   1.7684414634E+02
  2.4393651082E+02   1.5055525004E+02   3.1129098061E+02
  5.6663551330E+02   1.1445820299E+02   2.3313768405E+02
 -7.2570431196E+01   1.4440036392E+02  -3.6574885664E+02
 -4.3384065815E+02  -5.0282906221E+02  -9.3017821944E+00
  1.3621587257E+02   2.8227350636E+02  -1.4042373929E+02
 -8.8334314174E+01  -2.4571849823E+02  -2.1774196108E+02
  2.2952833801E+02   2.4395257218E+02   1.5186580116E+02
 -4.3926825058E+01   1.9348340803E+01  -7.7861002896E+01
 -3.1320416747E+01  -5.5017721583E+02  -1.2697419979E+02
 -1.1875753840E+02  -1.7043051809E+02  -1.4230261423E+02
 -1.0240897771E+02   7.0981410334E+01   7.6410093501E+01
 -1.1036982251E+02   8.3681463393E+00  -1.6882087979E+02
  3.2564613136E+02   3.1828668763E+02   1.6805580231E+02
 -3.7281206745E+02   2.4955316563E+01  -2.2298219108E+02
  1.7453689428E+01  -3.7039557995E+02  -5.3031257842E+01
 -1.1531041621E+02   1.0688347982E+02   1.9861828305E+02
  1.4802487466E+02  -5.0877481632E+00   2.0948134179E+02
  2.3852105642E+01   3.2047282812E+02   4.5217788483E+01
 -3.5579956846E+00   1.1417248264E+02   5.4809276695E+01
 -2.8755681339E+02  -6.0002971818E+02  -2.4597380272E+02
  3.6272868311E+02   5.3684962441E+02   2.8358299254E+02
  2.0266536734E+02   1.1430095213E+02   1.9682938630E+02
  3.4550783039E+02   2.6263422862E+02   1.3783230010E+02
 -4.8995818143E+01   1.0078680403E+02   7.9642642428E+00
:NPH_BMASS: 0.05
:NPH_INIT_Hamiltonian: -114.704366571631
:KE: 0.15741035810823
:Kbaro: 0.00897910369586171
:Ubaro: 2.03731402521678
:kinetic_stress: 
 0.00011683497834762 -3.6100742348185e-05 -4.56779610122146e-05 
 -3.6100742348185e-05 0.000180318995306345 -0.000107450101182111 
 -4.56779610122146e-05 -0.000107450101182111 0.00037731343714179
:Pm_metric_tensor: 
 0.231650615139373 -0.0767803990202293 -0.126335360074254 
 -0.0767803990202293 0.213072662475705 -0.122102028541196 
 -0.126335360074254 -0.122102028541196 0.723469403137532
:LATVEC_SCALE:   3.1052498808E+01   3.1045137303E+01   2.0725463091E+01
:LatVec: 
   5.0000000000E-01   5.0000000000E-01   8.0869499176E-17
  -1.4304630239E-16   5.0000000000E-01   5.0000000000E-01
   5.0000000000E-01  -1.7141781890E-16   5.0000000000E-01
:INITIAL_ANGLES:   6.0000000000E+01   6.0000000000E+01   6.0000000000E+01
:ROTATION_MATRIX: 
   7.0710678119E-01  -4.0824829046E-01   5.7735026919E-01
   7.0710678119E-01   4.0824829046E-01  -5.7735026919E-01
   1.1436674252E-16   8.1649658093E-01   5.7735026919E-01
:TTHRMI(K): 1000
:EXTERNAL_PRESSURE: 12
:EXTERNAL_STRESS: 0 0 0 0 0 0 GPa
:TEL(K):   1.0000000000E+03
:TIO(K):   9.4678589973E+02
