:MDSTEP: 5
:R(Bohr):
  7.9952865623E+00   3.5277085724E-02   1.9595147463E-02
  3.9976095793E+00   7.9927806659E+00   4.0234990708E+00
  2.7999480830E-02   3.9779754628E+00   3.9819916727E+00
  3.9791043776E+00   3.9939667856E+00   7.9749141091E+00
:V(Bohr/atu):
 -2.8944854099E-05   2.1113178113E-04   1.1784898030E-04
 -1.3728731380E-05  -4.4125811238E-05   1.4099691991E-04
  1.6754753250E-04  -1.3153071905E-04  -1.0832030761E-04
 -1.2487394703E-04  -3.5475250838E-05  -1.5052559259E-04
:TEL(K):   3.1577300000E+02
:TIO(K):   3.0705887166E+02
