:MDSTEP: 5
:R(Bohr):
  7.9952865623E+00   3.5277085722E-02   1.9595147460E-02
  3.9976095793E+00   7.9927806659E+00   4.0234990708E+00
  2.7999480827E-02   3.9779754628E+00   3.9819916727E+00
  3.9791043776E+00   3.9939667856E+00   7.9749141091E+00
:V(Bohr/atu):
 -2.8944851300E-05   2.1113185570E-04   1.1784901213E-04
 -1.3728746036E-05  -4.4125813493E-05   1.4099696539E-04
  1.6754759263E-04  -1.3153076881E-04  -1.0832033426E-04
 -1.2487399529E-04  -3.5475273394E-05  -1.5052564326E-04
:TEL(K):   3.1577300000E+02
:TIO(K):   3.0705907905E+02
