:MDSTEP: 10
:R(Bohr):
  1.3162819341E+01   2.8764458485E-01   1.6394260207E-01
  1.3185907589E+01   1.7412892031E+01   4.5316619007E+00
  1.6208406905E-01   1.7292166910E+01   8.6004741709E+00
  1.3109821741E+01   5.7675479852E+00   1.2864706226E+01
  3.3948008308E-02   5.9905068547E+00   4.3211064156E+00
  1.3153757394E+01   5.9748143535E+00   8.6506316109E+00
  1.2918069897E+01   1.1411473281E+01   1.0741513755E-01
  1.3240960763E+01   1.1712074504E+01   4.4945898218E+00
  8.8949756846E-02   1.1461386824E+01   8.7565172771E+00
  4.4110500776E+00   1.7470139404E+01   1.2809699239E+01
  4.5990131072E+00   9.7977607995E-03   4.2265069258E+00
  4.5867893473E+00   1.7283275016E+01   8.8163565319E+00
  4.7418135044E+00   5.8038506681E+00   1.2718083967E-01
  4.8478739866E+00   5.9670823273E+00   4.3311145697E+00
  4.2503467474E+00   6.0574530015E+00   8.5843214889E+00
  4.5464681570E+00   1.1308419753E+01   1.2995385021E+01
  4.4101340907E+00   1.1902378048E+01   4.3183911269E+00
  4.4826727133E+00   1.1661570614E+01   8.5300651476E+00
  8.9668019200E+00   6.9703349893E-02   2.9605463299E-01
  8.7305462550E+00   1.7466590897E+01   4.1065159178E+00
:V(Bohr/atu):
 -6.4503032097E-04   6.7688543966E-04   3.1287807404E-04
 -5.7981007234E-04  -1.6179947111E-04   3.3574000116E-04
  1.8136737814E-04  -4.3381935740E-04  -3.5929918195E-05
 -5.8874836434E-04  -1.4831775638E-04  -2.8946218282E-04
 -4.5343414473E-05   3.6380578953E-04  -8.3720765184E-05
 -5.6948789172E-04   3.2977835677E-04  -1.2051419855E-04
 -1.0298881003E-03  -5.4602851345E-04   2.4245953118E-04
 -3.6475412903E-04   1.5480674026E-04   3.0495498637E-04
  2.1688154846E-05  -4.3365934442E-04   2.0258062900E-04
  1.9778613386E-04  -1.5583415742E-05  -3.5846815336E-04
  6.1530900088E-04   2.9673715853E-05  -2.2827703009E-04
  5.3684704935E-04  -4.5700094485E-04   1.1134151359E-04
  7.8049504066E-04  -6.6733413919E-05   1.8298294264E-04
  1.0559632943E-03   3.0931353850E-04   6.4493405081E-06
 -2.6097296284E-04   5.1805081617E-04  -1.5364565408E-04
  3.5564866169E-04  -7.8893877189E-04  -1.0134234668E-04
  1.1519073598E-04   5.8629142414E-04  -1.1209436015E-04
  2.8707611029E-04   2.8958010421E-05  -2.7516749392E-04
  2.0105103197E-04   1.3767643221E-04   1.0751823422E-03
 -3.4332985344E-04  -1.5658241743E-05  -9.4211650966E-04
:Pm_ion:
 -4.7524665040E+02   6.5434490100E+02   2.2537908283E+02
 -4.2719355323E+02  -1.5641148812E+02   2.4184747928E+02
  1.3362819724E+02  -4.1937301032E+02  -2.5881813654E+01
 -4.3377912478E+02  -1.4337871954E+02  -2.0851164300E+02
 -3.3408206011E+01   3.5169092048E+02  -6.0307547368E+01
 -4.1958835762E+02   3.1879661397E+02  -8.6811386895E+01
 -7.5880288731E+02  -5.2784555944E+02   1.7465367916E+02
 -2.6874423172E+02   1.4965161783E+02   2.1967175342E+02
  1.5979439429E+01  -4.1921832583E+02   1.4592724818E+02
  1.4572523889E+02  -1.5064482161E+01  -2.5821951210E+02
  4.5334852041E+02   2.8685570001E+01  -1.6443743407E+02
  3.9553917652E+02  -4.4178264222E+02   8.0203920615E+01
  5.7505460081E+02  -6.4511166241E+01   1.3181022004E+02
  7.7801461770E+02   2.9901328182E+02   4.6457280620E+00
 -1.9228014933E+02   5.0079952996E+02  -1.1067735157E+02
  2.6203548840E+02  -7.6266681529E+02  -7.3001105036E+01
  8.4870446629E+01   5.6676770012E+02  -8.0746227292E+01
  2.1151247529E+02   2.7993697828E+01  -1.9821458436E+02
  6.5941329405E+01   5.9246624307E+01   3.4477284942E+02
 -1.1260637032E+02  -6.7382481589E+00  -3.0210335567E+02
:NPT_NP_QMASS: 20000
:NPT_NP_BMASS: 10
:NPT_NP_SNOSE[0]: 1.12440863066257
:NPT_NP_SNOSE[1]: 0.00083655924460113
:NPT_NP_SNOSE[2]: 1.08618252687995
:NPT_NP_INIT_Hamiltonian: -52.5963626041899
:KE: 0.251113131059878
:Kbaro: 0.00135804490105278
:Ubaro: 0.0103125518719466
:kinetic_stress: 
 0.000754183394247907 -3.40906911329535e-05 -5.18966472049141e-05 
 -3.40906911329535e-05 0.000241443908087453 -9.76284303412451e-06 
 -5.18966472049141e-05 -9.76284303412451e-06 0.000256213401940242
:Pm_metric_tensor: 
 0 0 -0.00476323485914432 
 0 0 0 
 -0.00476323485914432 0 2.94570959187658
:LATVEC_SCALE:   1.3322568219E+01   1.7479965394E+01   1.3028526076E+01
:LatVec: 
   1.0000000000E+00   0.0000000000E+00   0.0000000000E+00
   0.0000000000E+00   1.0000000000E+00   0.0000000000E+00
   0.0000000000E+00   0.0000000000E+00   1.0000000000E+00
:INITIAL_ANGLES:   9.0000000000E+01   9.0000000000E+01   9.0000000000E+01
:ROTATION_MATRIX: 
   1.0000000000E+00   0.0000000000E+00   0.0000000000E+00
   0.0000000000E+00   1.0000000000E+00   0.0000000000E+00
   0.0000000000E+00   0.0000000000E+00   1.0000000000E+00
:TTHRMI(K): 2400
:EXTERNAL_PRESSURE: 0.1
:EXTERNAL_STRESS: 0 0 0 0 0 0 GPa
:TEL(K):   2.4000000000E+03
:TIO(K):   2.7822896558E+03
