:MDSTEP: 10
:R(Bohr):
  1.0267182935E-01   7.0533073923E-01   5.0615152726E-01
  2.0068918715E-01   3.3908230345E+00   3.7410693012E+00
  3.7172897354E+00   6.0587819724E+00   3.3655733348E+00
  3.2888070547E+00   3.4884354266E+00   2.2664020951E-01
  3.6612260617E+00   3.3395083962E+00   3.4007109645E+00
  3.2845226841E+00   5.2824930037E-01   5.7110522462E-01
  2.3263121174E-01   3.1058811365E+00   6.1373602163E+00
  4.1497057818E-02   4.4397997292E-01   3.1576488927E+00
:V(Bohr/atu):
  3.0244076117E-04   2.8952144059E-03   2.2574807624E-03
  1.7971000850E-03  -1.6541565464E-04   1.6730501358E-03
  1.6553491476E-03  -1.2369762102E-03  -7.7902127352E-04
 -3.1222057589E-03  -3.4875223547E-04  -2.5099549681E-03
 -4.1831301157E-04   7.7993337731E-04   1.4039510580E-03
 -1.0880293622E-03  -6.4147415230E-05  -1.8369667111E-04
  1.2744405136E-03  -5.5581268856E-04  -1.3915860101E-03
  7.5289079835E-07  -5.7795535290E-04  -6.3058123705E-05
:TEL(K):   1.2000000000E+04
:TIO(K):   1.2000000000E+04
