:MDSTEP: 10
:R(Bohr):
  1.0267182934E-01   7.0533073923E-01   5.0615152726E-01
  2.0068918716E-01   3.3908230345E+00   3.7410693012E+00
  3.7172897354E+00   6.0587819724E+00   3.3655733349E+00
  3.2888070547E+00   3.4884354266E+00   2.2664020952E-01
  3.6612260616E+00   3.3395083962E+00   3.4007109645E+00
  3.2845226841E+00   5.2824930036E-01   5.7110522461E-01
  2.3263121174E-01   3.1058811365E+00   6.1373602163E+00
  4.1497057817E-02   4.4397997291E-01   3.1576488927E+00
:V(Bohr/atu):
  3.0244076093E-04   2.8952144058E-03   2.2574807624E-03
  1.7971000852E-03  -1.6541565466E-04   1.6730501355E-03
  1.6553491476E-03  -1.2369762097E-03  -7.7902127323E-04
 -3.1222057588E-03  -3.4875223535E-04  -2.5099549680E-03
 -4.1831301155E-04   7.7993337743E-04   1.4039510582E-03
 -1.0880293623E-03  -6.4147415330E-05  -1.8369667120E-04
  1.2744405136E-03  -5.5581268853E-04  -1.3915860101E-03
  7.5289078184E-07  -5.7795535314E-04  -6.3058123782E-05
:TEL(K):   1.2000000000E+04
:TIO(K):   1.2000000000E+04
