:MDSTEP: 3000
:R(Bohr):
  6.1963642000E+00   1.2895539232E+01   7.1211670331E+00
  7.7732292227E+00   3.9540119310E+00   7.9380405099E+00
  1.1133979070E+01   2.0163066024E+01   6.7966420626E+00
  7.3752896056E+00   1.7574974796E+01   9.4762209143E+00
  3.2303662632E+00   1.7436482238E+01   3.6003622313E+00
  3.5000995776E+00   1.1703547981E+01   2.8677439397E+00
  1.4187092963E+01   1.6190725202E+01   9.4328347604E+00
  8.5431610497E+00   1.6333018246E+01   2.1355455385E+00
  1.0186444967E+01   4.5822167241E+00   6.2958897382E-01
  5.3981766668E+00   2.1100381657E+01   7.3121406415E+00
  1.2683543690E+01   2.1189720213E+01   2.3607489577E+00
  5.5110019903E+00   2.0724252777E+01   8.1920009529E-01
  1.3462898778E+01   7.9913958193E+00   6.2498667840E+00
  8.0229837660E+00   7.6192039147E+00   5.0994293339E+00
  1.1568041165E+01   1.3587298064E+01   5.4487289947E+00
  6.0713728267E+00   2.4214747444E+00   3.6062142301E+00
  2.8172735102E+00   6.3652209696E+00   7.6500173909E-01
  1.3252678453E+01   3.2575357596E+00   5.4000660208E+00
  5.9283137973E+00   9.5511929051E+00   7.4749897140E-01
  6.8758299926E+00   6.9451994345E+00   1.0296111436E+00
:V(Bohr/atu):
  9.0070263357E-05   2.1416592697E-04  -3.0226593213E-04
 -7.0078146600E-04  -8.6341493206E-05  -1.2568772177E-04
  5.3272877988E-04   6.5082576574E-04  -3.6587060646E-04
  6.3838987093E-04  -1.5544675756E-04  -4.7963417806E-04
  1.9388065976E-04  -6.1387723020E-05   5.6563412768E-04
  1.8854852833E-04  -2.2076568884E-04   2.9021617485E-04
  2.0410708106E-04  -1.1232682861E-04   6.7790737993E-05
  5.4587173537E-04  -3.2966516111E-04   1.6583270508E-04
  2.2394138190E-04   1.9606274332E-04   1.6865423379E-04
  5.6267195304E-05  -1.2263468146E-03   5.8114171927E-05
 -4.0804118704E-04  -3.1712984552E-04  -8.4528608980E-05
 -1.0106880676E-05  -1.5261893802E-05  -1.2170621258E-04
 -1.2232972640E-04   2.7917544877E-04   4.3157217615E-04
  5.2611234294E-04   1.1099400778E-04   2.6474243680E-04
 -4.5454517009E-04   2.7388183507E-04  -2.4975023837E-04
 -9.8449617448E-04  -3.3790998280E-04  -2.2536482746E-04
  6.4361263678E-04   6.3279575091E-05  -1.4364568672E-04
 -2.9192955772E-04   7.4553507428E-04  -1.2025133705E-04
 -1.0055478741E-03  -4.6962615650E-05  -1.7366233766E-04
 -9.5180837339E-04   7.8529386769E-04   6.3677042470E-04
:Pm_ion:
  6.5630103259E+02   3.0030561138E+03  -1.0369552604E+03
 -5.1040594232E+03  -1.2117391940E+03  -3.5487941960E+03
  3.8852566145E+03   9.1291338932E+03   1.0947692054E+03
  4.6401049114E+03  -2.1844362369E+03  -7.3425572473E+02
  1.4157903152E+03  -8.5801707068E+02   3.9590742616E+03
  1.3717203425E+03  -3.0959230783E+03   2.0019977673E+03
  1.4846314969E+03  -1.5757846135E+03   9.5324592110E+02
  3.9699264847E+03  -4.6248955042E+03   2.4014806631E+03
  1.6350470472E+03   2.7518282515E+03   2.2190683501E+03
  3.9002753315E+02  -1.7206547756E+04  -1.8073045354E+03
 -2.9764098604E+03  -4.4498800662E+03  -2.6476914576E+03
 -7.4990464009E+01  -2.1487432155E+02  -7.8770621095E+02
 -8.8180057095E+02   3.9198234575E+03   2.6313406215E+03
  3.8342669907E+03   1.5586065218E+03   3.7615343550E+03
 -3.3068211777E+03   3.8416255681E+03  -2.6617176676E+03
 -7.1744856833E+03  -4.7419065009E+03  -5.6916809008E+03
  4.6849331203E+03   8.8655551053E+02   1.6952179699E+03
 -2.1140541215E+03   1.0460065720E+04  -3.7423064428E+02
 -3.2595313469E+03  -2.9348016656E+02  -2.1831262045E+03
 -3.0758532410E+03   4.9067894722E+03   7.5573368706E+02
:NPT_NP_QMASS: 175760.7
:NPT_NP_BMASS: 71.47
:NPT_NP_SNOSE[0]: 12.55062080316
:NPT_NP_SNOSE[1]: -0.00011747718454281
:NPT_NP_SNOSE[2]: 12.6117233808802
:NPT_NP_INIT_Hamiltonian: -52.5061235370305
:KE: 0.23697030991683
:Kbaro: 0.023333431546017
:Ubaro: 0.00873581746192961
:kinetic_stress: 
 0.000913289664635729 2.63162872367137e-05 -0.000197874643870945 
 2.63162872367137e-05 0.000175073803441165 -6.84186149112176e-05 
 -0.000197874643870945 -6.84186149112176e-05 0.000415928239398599
:Pm_metric_tensor: 
 22.8147666070812 -3.42359230725559 -24.0394937132896 
 -3.42359230725559 -3.01719303957406 -5.38094507487799 
 -24.0394937132896 -5.38094507487799 26.119275607675
:CELL:   1.1801846095E+01   2.2678356253E+01   1.1782481525E+01
:LatUVec: 
   1.0000000000E+00   0.0000000000E+00   0.0000000000E+00
  -2.3046495885E-03   9.9999734429E-01   0.0000000000E+00
   5.1641504842E-01   2.6281306706E-01   8.1501214074E-01
:INITIAL_ANGLES:   9.0000000000E+01   9.0000000000E+01   9.0000000000E+01
:ROTATION_MATRIX: 
   1.0000000000E+00   0.0000000000E+00   0.0000000000E+00
   0.0000000000E+00   1.0000000000E+00   0.0000000000E+00
   0.0000000000E+00   0.0000000000E+00   1.0000000000E+00
:TTHRMI(K): 2400
:EXTERNAL_PRESSURE: 0.1
:EXTERNAL_STRESS: 0 0 0 0 0 0 GPa
:TEL(K):   2.3998901885E+03
:TIO(K):   2.6255896664E+03
