:MDSTEP: 10
:R(Bohr):
  1.8888652316E+01   2.8862980079E-01   1.8319784349E-01
  1.1655998809E-02   1.8829991960E+01   6.5140133446E+00
  2.8904438007E-01   1.8707217556E+01   1.2468241717E+01
  1.8783717507E+01   6.2410146491E+00   1.8710638493E+01
  1.4178768633E-01   6.4675127670E+00   6.2860091905E+00
  1.8852516037E+01   6.4553005860E+00   1.2573645859E+01
  1.8591100020E+01   1.2349787728E+01   1.1016554175E-01
  4.2832255666E-02   1.2653130889E+01   6.4615189671E+00
  2.1417532843E-01   1.2400753732E+01   1.2657984348E+01
  6.1158014969E+00   1.8887979577E+01   1.8638923479E+01
  6.3159077817E+00   6.0364026712E-03   6.1702863451E+00
  6.3170791475E+00   1.8697547771E+01   1.2781147798E+01
  6.5036054196E+00   6.2806011506E+00   1.5930111849E-01
  6.6010748900E+00   6.4421052282E+00   6.2776799104E+00
  5.9844856538E+00   6.5384341570E+00   1.2472145665E+01
  6.3016390416E+00   1.2248650943E+01   1.8873547607E+01
  6.1413420153E+00   1.2847101890E+01   6.2880145491E+00
  6.2139772811E+00   1.2601738669E+01   1.2418725561E+01
  1.2688438956E+01   7.4888994786E-02   1.7322805502E-01
  1.2441317537E+01   1.8880601736E+01   6.1873722685E+00
:V(Bohr/atu):
 -3.4372642383E-05   7.1626336024E-04   4.4852679988E-04
  2.3271267210E-05  -1.7004463083E-04   5.2616631194E-04
  7.4330391574E-04  -4.6759734874E-04  -3.2383499792E-04
 -2.3335021530E-04  -1.4587964287E-04  -4.5401716193E-04
  3.8782271439E-04   4.1272613724E-04  -2.6560561663E-05
 -5.3004982972E-05   3.9261681706E-04  -5.6974958113E-05
 -7.0048583409E-04  -6.1400420935E-04   2.6693107172E-04
  1.5591586777E-04   1.3663245148E-04   3.9372060165E-04
  5.7145641224E-04  -4.8180619052E-04   1.4224801595E-04
 -4.4895109266E-04  -1.2311815211E-05  -6.3552232606E-04
  6.3621082272E-05   6.6062938076E-06  -3.1591782073E-04
 -5.5913862793E-07  -4.9482784148E-04   4.5697658105E-04
  4.5279078528E-04  -3.9504180236E-05   3.9316112866E-04
  6.8705171332E-04   3.4231629768E-04  -5.2111924826E-05
 -8.1594564368E-04   5.9304404212E-04  -3.1441050246E-04
 -3.5824204115E-05  -8.5793131217E-04  -5.2593623280E-05
 -4.3299325153E-04   6.1199375132E-04  -2.3463507228E-05
 -2.6029675289E-04   8.1893718462E-06  -4.3953014455E-04
  2.5190907386E-04   1.7839833523E-04   5.4326108185E-04
 -4.0792171627E-04  -3.5709894416E-05  -3.9228707955E-04
:Pm_ion:
 -3.1947624169E+01   6.6572388134E+02   4.1687878883E+02
  2.1629460152E+01  -1.5804629682E+02   4.8904006383E+02
  6.9086321263E+02  -4.3460372146E+02  -3.0098522931E+02
 -2.1688716552E+02  -1.3558638826E+02  -4.2198175142E+02
  3.6046150265E+02   3.8360421776E+02  -2.4686450798E+01
 -4.9265437791E+01   3.6491380942E+02  -5.2954810143E+01
 -6.5106598189E+02  -5.7068012703E+02   2.4809643907E+02
  1.4491587495E+02   1.2699167787E+02   3.6593971106E+02
  5.3113969196E+02  -4.4780998863E+02   1.3221100862E+02
 -4.1727722352E+02  -1.1443094626E+01  -5.9067992733E+02
  5.9132562547E+01   6.1401543050E+00  -2.9362668744E+02
 -5.1969093747E-01  -4.5991283306E+02   4.2473235420E+02
  4.2084602266E+02  -3.6716768797E+01   3.6541971444E+02
  6.3857964940E+02   3.1816249021E+02  -4.8434912052E+01
 -7.5838000687E+02   5.5119890733E+02  -2.9222572541E+02
 -3.3296777026E+01  -7.9739575519E+02  -4.8882621906E+01
 -4.0244522121E+02   5.6881152673E+02  -2.1807924248E+01
 -2.4193260271E+02   7.6115304982E+00  -4.0851693670E+02
  1.0422740273E+02   7.3811606083E+01   2.2477212537E+02
 -1.6877764804E+02  -1.4774827671E+01  -1.6230722865E+02
:NPH_BMASS: 40
:NPH_INIT_Hamiltonian: -52.0755236662492
:KE: 0.233388048191769
:Kbaro: 3.30226202270184e-05
:Ubaro: 0.0229364140522671
:kinetic_stress: 
 0.000241766084172693 -3.42290574500811e-05 5.04656509563726e-05 
 -3.42290574500811e-05 0.000246203775908495 -8.69080481502079e-06 
 5.04656509563726e-05 -8.69080481502079e-06 0.00016559367642888
:Pm_metric_tensor: 
 0 0 0 
 0 -0.684534450377882 -0.00031670417962225 
 0 -0.00031670417962225 -0.688498795779179
:LATVEC_SCALE:   1.8897259886E+01   1.8896969972E+01   1.8896969972E+01
:LatVec: 
   1.0000000000E+00   0.0000000000E+00   0.0000000000E+00
   0.0000000000E+00   1.0000000000E+00   0.0000000000E+00
   0.0000000000E+00   0.0000000000E+00   1.0000000000E+00
:INITIAL_ANGLES:   9.0000000000E+01   9.0000000000E+01   9.0000000000E+01
:ROTATION_MATRIX: 
   1.0000000000E+00   0.0000000000E+00   0.0000000000E+00
   0.0000000000E+00   1.0000000000E+00   0.0000000000E+00
   0.0000000000E+00   0.0000000000E+00   1.0000000000E+00
:TTHRMI(K): 2400
:EXTERNAL_PRESSURE: 0.1
:EXTERNAL_STRESS: 0 0 0 0 0 0 GPa
:TEL(K):   2.4000000000E+03
:TIO(K):   2.5858988318E+03
