:MDSTEP: 10
:R(Bohr):
  2.2760521203E+01   3.6918859790E-01   3.0831933030E-01
  3.7641898728E+00   3.5976046727E+00   3.7412923379E-01
  3.3491835557E-01   3.8283820098E+00   3.6210807848E+00
  3.6437567166E+00   4.1692265145E+00   7.2234516666E+00
  1.5381898217E-01   3.9694396537E+00   1.1542403025E+01
  3.8284628665E+00   1.4702798897E-01   1.0992630063E+01
  2.2672166005E+01   2.2542561722E+01   1.5744548185E+01
  3.9236118353E+00   3.8036978852E+00   1.5629354844E+01
  4.5130053206E+00   2.2367768722E+01   1.9127425852E+01
  2.2396291471E+01   7.6194670795E+00   2.2543624119E+01
  3.9459410471E+00   1.1739006252E+01   2.2862284144E+01
  2.9099679996E-01   1.1285228760E+01   4.0697182306E+00
  4.1642757553E+00   7.8306713386E+00   3.8680413484E+00
  5.7004365339E-01   8.2546124636E+00   7.4893116040E+00
  3.3252477305E+00   1.2022615072E+01   7.7842286976E+00
  3.5938231471E+00   6.9804125685E+00   1.1415938257E+01
  2.2917150336E+01   8.2352018950E+00   1.5233544338E+01
  3.7505121220E+00   1.1621178299E+01   1.5289284305E+01
  2.2793229632E-01   1.1174474821E+01   1.9380187929E+01
  4.2944380626E+00   8.1506574620E+00   1.9205632909E+01
  2.2862380461E+01   1.4808127766E+01   3.3918546433E-01
  4.1468636801E+00   1.9083352015E+01   5.8568379997E-02
  2.2860535191E+01   1.9302836378E+01   3.7758622542E+00
  3.9473115838E+00   1.5544594874E+01   3.9337688792E+00
  2.2469074614E+01   1.5528692889E+01   7.7170681821E+00
  8.4137019970E-02   1.9062367684E+01   1.1276103729E+01
  3.5785841496E+00   1.5218285117E+01   1.1590840452E+01
  2.5030126253E-01   1.5030601264E+01   1.5605688656E+01
  3.5611441497E+00   1.8903138647E+01   1.5599839186E+01
  5.5158074693E-01   1.9594157073E+01   1.9456232837E+01
  3.8426143485E+00   1.5576116078E+01   1.9486486723E+01
  7.5111001080E+00   1.3075235332E-01   2.2776753585E+01
  1.1546181800E+01   4.0921486412E+00   2.2642947653E+01
  7.2340374818E+00   3.5795263832E+00   3.7983539307E+00
  1.1224349321E+01   6.1029601135E-01   3.7099715973E+00
  7.9491192638E+00   2.2811916631E+01   7.4276906841E+00
  1.1409272511E+01   4.0747118036E+00   7.8553413046E+00
  1.1827667140E+01   5.2714939653E-01   1.1662988631E+01
  7.4208447535E+00   2.2938438725E+01   1.4603622979E+01
  1.1059603446E+01   3.5090315229E+00   1.5395694369E+01
  7.4679881838E+00   4.1108099811E+00   1.9406473098E+01
  1.1055423293E+01   2.2783352726E+01   1.9169101268E+01
  7.8909389731E+00   7.6434155028E+00   1.6133961198E-01
  1.1996730582E+01   1.1670018121E+01   1.6956151896E-01
  8.0703122862E+00   1.1094088367E+01   4.2991497394E+00
  1.1289727009E+01   7.7174201740E+00   3.7418852216E+00
  7.7005835350E+00   7.9354864994E+00   7.8530438135E+00
  1.1646525474E+01   1.1563760715E+01   8.1182124302E+00
  8.5082671878E+00   1.1467071308E+01   1.1610442544E+01
  1.1289716356E+01   7.6757786762E+00   1.1789793647E+01
  7.5904888085E+00   7.8099535760E+00   1.5126412559E+01
  1.1822925359E+01   1.1323594305E+01   1.5411969999E+01
  8.3683883807E+00   1.1514465414E+01   1.8695046394E+01
  1.1398058426E+01   7.7144248151E+00   1.8983662936E+01
  7.6472075387E+00   1.5299303868E+01   2.2852099037E+01
  1.1664736355E+01   1.9089416355E+01   8.9664849686E-02
  8.2037623308E+00   1.9331456469E+01   4.2099339426E+00
  1.1118033033E+01   1.5153783497E+01   3.7368646648E+00
  7.7481725939E+00   1.4920742427E+01   7.6056429009E+00
  1.2135220599E+01   1.9157640089E+01   7.8043713394E+00
  7.4168911494E+00   1.9223976396E+01   1.1368923866E+01
  1.1494684122E+01   1.5504651211E+01   1.1813150098E+01
  7.6323825139E+00   1.5231227417E+01   1.5089434471E+01
  1.1456178972E+01   1.8912951285E+01   1.5160311898E+01
  1.1793678161E+01   1.5329758332E+01   1.9062912150E+01
  1.5665362028E+01   7.2052399276E-01   2.2942848195E+01
  1.5373762619E+01   3.7436673808E+00   4.1661811988E+00
  1.9399269708E+01   2.2758181864E+01   4.1549682590E+00
  1.9419454460E+01   4.3084865574E+00   8.0169163539E+00
  1.5183757274E+01   4.1430278575E+00   1.1631991587E+01
  1.8504017035E+01   2.2879852079E+01   1.1430581553E+01
  1.5245128813E+01   3.5478980377E+00   1.8834901283E+01
  1.9342145816E+01   2.2657984568E+01   1.8908155812E+01
  1.5525946116E+01   7.9929070556E+00   2.2520940375E+01
  1.9428433859E+01   1.1319362027E+01   2.8674419890E-01
  1.5073065178E+01   1.1619237279E+01   3.9739072911E+00
  1.8815670132E+01   7.8462335333E+00   4.0288026073E+00
  1.5319712513E+01   7.8533618373E+00   7.5752223438E+00
  1.9255149349E+01   1.1367474319E+01   7.7785736778E+00
  1.5095005981E+01   1.1387767963E+01   1.1555183930E+01
  1.5455249835E+01   7.6000750656E+00   1.5153443316E+01
  1.8986140729E+01   1.1797102248E+01   1.5846564591E+01
  1.5802190526E+01   1.1520654328E+01   1.9112589462E+01
  1.9401411909E+01   7.5261472320E+00   1.9005576644E+01
  1.5443710726E+01   1.5476325368E+01   1.1278667769E-01
  1.8509155157E+01   1.9216011069E+01   2.2852041214E+01
  1.5451074712E+01   1.9153956640E+01   3.7485653910E+00
  1.9260289261E+01   1.5408960449E+01   3.6975461245E+00
  1.9057098111E+01   1.9404870843E+01   7.7746327437E+00
  1.5683130186E+01   1.9163204011E+01   1.1459813863E+01
  1.9123235264E+01   1.5236906419E+01   1.1463003971E+01
  1.5148829101E+01   1.5432945098E+01   1.5383009891E+01
  1.9449154857E+01   1.9242028800E+01   1.5301636968E+01
  1.5304048640E+01   1.8935401868E+01   1.9340180274E+01
  1.9615135873E+01   1.5410269996E+01   1.9407307661E+01
  4.1065305946E+00   1.4355906659E-01   3.9826747049E+00
  2.2727853363E+01   4.8084118478E-01   7.4304882789E+00
  3.8006753913E-01   3.5477645564E+00   1.8576397828E+01
  2.2841572389E+01   1.1320741904E+01   1.1284955116E+01
  3.4752164330E+00   1.8647446928E+01   7.8555450246E+00
  7.1738462900E+00   4.0511154452E+00   1.1399403575E+01
  7.7707625233E+00   1.8981456557E+01   1.9333938248E+01
  1.8558324719E+01   3.8293304388E+00   3.2293404363E-01
  1.5383448651E+01   9.1979528835E-03   7.3511390414E+00
  1.5226556064E+01   2.2613079551E+01   1.5853050215E+01
  1.9589338110E+01   3.8213182444E+00   1.5214363922E+01
  1.8820007337E+01   8.0347983792E+00   1.1697047967E+01
  1.5054360507E+01   1.5404570625E+01   7.7121368160E+00
:V(Bohr/atu):
 -1.0167374981E-04   8.6666674274E-04   3.9334393853E-04
 -7.1060440834E-05   8.0942398831E-05   3.1989927794E-04
  4.0152000903E-04  -3.8438176240E-04  -3.3567052846E-04
 -4.7042843672E-04  -4.2410395242E-04  -3.7238060638E-04
  5.0082727634E-05   3.3481285841E-04   4.0491245550E-05
 -4.8582847049E-04   5.4051442297E-04  -1.4910948544E-04
 -8.2202420009E-04  -2.3401155674E-04  -3.8517507495E-05
 -8.8998624379E-05   2.3021910824E-04   4.1446399397E-04
  3.8598240091E-04  -1.3707428040E-04   1.0918345292E-04
 -3.8621767726E-04  -1.3187405413E-04  -4.7243180958E-04
 -1.5851465387E-05  -4.7107307128E-05  -2.1925571430E-04
 -1.3835817514E-04  -2.5795448764E-04   2.4685611661E-04
  5.3716020538E-04   4.9365882401E-05   2.9527649602E-04
  4.7177302056E-04   4.3606212512E-06   1.0378908158E-04
 -5.1129901155E-04   8.1644716813E-04  -3.7742664558E-04
  1.4759996273E-04  -4.6528720321E-04   4.2732893641E-05
 -5.6096274169E-04   6.2561599373E-04  -3.6409370862E-05
 -1.8297357255E-04  -1.8128143241E-05  -5.6114748391E-04
  3.4921472300E-04  -4.4222011934E-04   1.8878568495E-04
  4.0350839837E-04   2.6757699881E-04  -4.9834234245E-04
 -5.6656923918E-05  -4.7739476949E-04   1.1004236462E-04
  4.9349917055E-04  -8.1614589851E-05  -6.8707669518E-05
  2.4179113505E-04   4.0917976451E-05  -5.0126499436E-04
 -1.6598104533E-04   9.6229310388E-05  -2.1903266818E-04
 -9.7727664567E-05   4.5143416481E-04  -2.0153086446E-05
  1.7414350616E-05  -3.4483844002E-04  -5.7560510266E-04
 -3.5853676091E-04  -1.6717090565E-05  -7.7544977359E-05
  1.8225420457E-04  -4.4047914495E-04   9.1040965158E-04
 -2.0619406810E-04  -2.4577960649E-04   4.0454388370E-04
  1.3464862828E-04   4.8712498510E-04   4.6501606723E-04
 -9.2124297023E-06   5.6231773800E-04   2.4079187208E-04
 -2.9910625650E-04   1.7887492318E-04  -3.4236272621E-04
  1.0189070440E-04   2.0218150214E-04  -1.4424297282E-04
 -5.0931448334E-04  -3.4860573723E-04  -2.7517009618E-04
 -2.2302486710E-04   3.5228771092E-04  -8.5542176691E-05
 -2.7540570824E-05  -1.8163203909E-04  -6.8947996853E-06
  1.7125461771E-04   3.2933429799E-04  -2.1008131732E-04
  5.1795095530E-04   4.3286759932E-04   1.0794129351E-04
 -3.0458630261E-04   1.0266528014E-04  -4.0506307552E-04
 -4.7983791901E-04  -2.7937095184E-04   5.7511510351E-05
 -1.6908831657E-04   1.6016255513E-04   2.4320836953E-04
  8.6287041046E-05  -1.8442011483E-04  -3.3009482527E-04
  1.3583643357E-04  -4.0485369029E-04   2.9996260841E-04
  3.4011353359E-04   2.6767095661E-04   1.3419928374E-04
  2.0109821152E-04  -4.2714405440E-05   4.9813785585E-04
 -2.6316080968E-04   7.7799160745E-05   1.9112942095E-05
 -2.3671611134E-05   1.0012922057E-04  -3.8339912971E-06
  2.1850881315E-04   1.6475002186E-04   4.4627115831E-04
  6.1454821276E-04   8.0303023879E-05   6.6512050992E-05
 -3.9061209431E-05   1.3840341228E-05   2.1526798374E-05
  3.8241182900E-04  -1.3800127102E-05   1.3740863178E-04
  1.0599145639E-04  -2.4184994994E-04   1.0052477034E-04
  3.1983124540E-04   7.0412315815E-04  -3.9914411981E-04
 -2.2338562140E-04  -5.7644917206E-05   1.7530945290E-05
  1.0561842146E-04  -1.8995997215E-04   4.6241287270E-05
  8.2171194292E-05  -3.8439293640E-04  -2.8534171233E-04
  1.3943009373E-04   1.3382940917E-04   4.1919254693E-04
 -4.6358992222E-04  -1.6600933760E-04   5.7252909170E-05
  1.9364791212E-04  -5.6661739392E-04   1.0878482476E-04
  5.8938971106E-04   7.3723230381E-05  -3.0124700283E-04
 -8.8591290584E-05   6.7769544139E-04   2.1370817868E-04
  1.5045640563E-04   9.5044873542E-05   6.9387764612E-04
 -1.4046472974E-04   3.6295508291E-04  -6.4610504676E-05
  1.1470094650E-04  -3.4682551266E-04  -4.1679104391E-04
  1.1866510292E-04  -3.3951361110E-05  -7.9205718065E-05
  4.0393226936E-04   8.6524184998E-05   1.8350479589E-04
  2.2031634330E-04  -1.6714586896E-04   1.1836235090E-04
  5.1996362864E-04  -3.1097221697E-04   1.1091945962E-04
 -2.2354290747E-05   4.7697051012E-04   3.2676234593E-04
 -5.8552274610E-04   1.4439337774E-04   4.6439644709E-04
 -4.1293385039E-04  -1.4693974417E-05  -9.5701171014E-05
 -4.8257246311E-04  -3.4425767003E-04  -2.6921734942E-04
  4.8559277878E-04  -1.1819364478E-04  -2.5637083901E-04
 -3.9959956504E-04  -3.0294714294E-05  -1.0864214082E-04
  6.2787960392E-04  -4.4004261560E-04   4.9034518341E-04
 -2.5901558673E-04  -5.2183994935E-05   3.1240528825E-04
 -2.0721603447E-04   9.7632547251E-05   7.1448668979E-06
  9.7093534062E-05   1.5793997330E-04  -1.5622475347E-04
  2.6950403721E-04  -3.3123957569E-05   3.6548145516E-04
 -2.4503393772E-04  -6.1399793797E-05   5.6304561211E-05
  2.7115846831E-04   3.8838342544E-04  -1.7542895183E-04
 -4.4390784744E-04  -2.3999102697E-05   8.5179132256E-05
  5.0353658736E-04  -1.6726950783E-05   4.0979690403E-05
  1.0590466163E-04  -1.8867154328E-04   8.9679239421E-05
  2.4507560515E-05  -2.2669311101E-04   1.8684925368E-04
 -5.7292142483E-04   1.5644200066E-05  -4.0318617883E-04
  6.6611802449E-05  -3.1516022408E-04  -2.1981814070E-04
  2.3030044342E-04  -1.1298553969E-04  -3.9484735374E-05
  1.4107863815E-04   1.0079062151E-04   1.5337692694E-06
  3.4243413920E-05   5.2839353692E-05  -5.2813268794E-04
 -1.1139530504E-04   5.0181914812E-04  -1.9324961126E-04
  8.1154414460E-05  -4.9858730834E-05   4.8708250275E-05
 -2.3623578681E-04  -1.6666124459E-05  -5.3324477952E-04
  3.0611120857E-04  -4.3314035575E-04  -1.7828400614E-04
  5.3611757840E-04  -5.9549880408E-04   9.4395854031E-05
 -3.6678247890E-05   1.7342696018E-05   3.3382643763E-04
 -1.5248160997E-04  -1.3222833667E-05   2.6022473934E-05
  1.8467704781E-04  -4.3186352257E-04  -7.0272218661E-04
 -3.3272866923E-04  -1.1529751870E-04  -2.0054454532E-04
 -1.5647176291E-04  -1.4124844862E-04   2.0898675792E-04
 -3.9418011139E-04   7.1823844477E-05  -1.6129863709E-04
  2.5428932181E-04   3.2143481921E-04   1.1403698071E-04
 -6.8022207851E-04   1.5428407409E-04   7.7395686840E-05
  1.2982487462E-04  -3.4737065146E-04  -5.5167942727E-04
 -1.1491732300E-04  -3.6196630947E-04   4.1602420620E-04
  3.2018176145E-04  -1.7970947253E-04   1.1160955702E-04
 -2.6774261105E-04   2.5865784256E-04   2.8280459905E-04
 -1.6400779675E-04  -4.4085690581E-05   1.1483203400E-04
:TEL(K):   1.5000000000E+03
:TIO(K):   1.5000000000E+03
