:MDSTEP: 10
:R(Bohr):
  2.8302522989E+02   1.8512171433E-01   7.1775701064E+00
  2.8296360786E+02   6.1472978011E+00   3.8120493435E+00
  2.8291770917E+02   1.2233354714E+01   1.4042443593E+01
  2.8286494965E+02   6.1536523017E+00   1.0491803041E+01
  2.8004097913E+02   4.1339627928E+00   7.1261446772E+00
  2.7975673975E+02   1.0186785534E+01   3.5033392004E+00
  2.8595588113E+02   8.1501450911E+00   1.3834768404E+01
  2.8589739157E+02   2.0291259197E+00   3.4277672851E+00
  2.7996058807E+02   3.9996266778E+00   8.1686101581E-02
  2.7968365270E+02   1.0209600166E+01   1.0528492227E+01
  2.8594894378E+02   8.4456038390E+00   7.1282841640E+00
  2.8569487621E+02   2.0451132432E+00   1.0596484661E+01
:V(Bohr/atu):
  1.7413333957E-05   2.5466457387E-04   1.6815185921E-04
  3.3030122230E-05  -1.9752504267E-05   1.9803197790E-04
  2.4822209430E-04  -1.5944582169E-04  -9.1892348246E-05
 -1.1256345218E-04  -7.5082720216E-06  -1.0669594014E-04
  5.6719351782E-05   7.5367514311E-05   7.9189611064E-05
 -7.9962587086E-05   6.9673796024E-06  -3.6034114835E-05
  1.3583137608E-04  -2.3209730289E-04  -3.8838435487E-04
 -8.8725271039E-05  -7.1776688445E-05  -1.3257135790E-04
 -1.4080772038E-05  -9.3243579018E-05   9.8421093155E-05
 -1.9419837484E-04   3.8202798562E-05  -8.3231857950E-05
  1.3630151417E-04   1.7062586752E-04   7.4453781835E-05
 -3.4375160892E-04  -5.1279428722E-05   9.3582797406E-06
:TEL(K):   3.1577502480E+02
:TIO(K):   1.5000000000E+03
