:MDSTEP: 5
:R(Bohr):
  4.3978097215E+00   4.4263877185E+00   4.4122734460E+00
  2.4980960386E-03   8.7845912024E+00   1.8579942437E-02
  1.7360335286E+00   7.0761747316E+00   4.4063999935E+00
  7.0494518082E+00   1.7203001221E+00   4.3836014228E+00
  2.6905882482E+00   2.6305137008E+00   8.7295777341E+00
  6.1044072995E+00   6.1056501518E+00   8.7641955044E+00
:V(Bohr/atu):
  6.1202603254E-06   2.9491396224E-04   1.6080942816E-04
  2.6137929653E-05  -9.8291553617E-05   1.9797682398E-04
  2.4557896908E-04  -6.6447986496E-05   8.9602892555E-05
 -3.4047064227E-04   8.3931276638E-05  -1.4812756820E-04
  5.1984885972E-05  -5.6418189596E-04  -6.8645489313E-04
 -5.3603255636E-05  -4.1556255826E-05  -3.2843703003E-04
:TEL(K):   8.0000000000E+02
:TIO(K):   9.8742730559E+02
