:MDSTEP: 5
:R(Bohr):
  2.3720860940E+00  -1.3062998902E+00   1.0949313646E+01
  2.3787388457E+00   1.3364056703E+00   3.6758255196E+00
  2.3932129099E+00  -1.3764244627E+00   3.6342787360E+00
  2.3534733323E+00   1.3531823535E+00   1.0887360028E+01
:V(Bohr/atu):
 -3.5605170834E-05   5.8235453543E-04   2.3019380803E-04
  5.6835693847E-05  -3.1669854184E-04   3.3468787685E-04
  1.8222984154E-04  -8.0103387549E-05  -6.6885748699E-05
 -1.9862012049E-04  -1.2498698332E-04  -3.6921129803E-04
:TEL(K):   8.0000000000E+02
:TIO(K):   6.3210902081E+02
