:MDSTEP: 20
:R(Bohr):
  4.8890610134E+00   5.0549981016E+00   7.0674742625E-01
  1.6042851416E+00   2.0819116171E+00   1.2366386525E+00
  5.1170229574E+00   4.7802205302E+00   3.1555058108E+00
  1.2636755872E+00   7.5899674248E-01   4.2360617787E+00
  1.5859891955E-01   2.2167428650E+00   5.1515468894E-01
  9.6091570452E-01   3.9710182016E+00   1.7543077308E+00
  1.8011373566E-01   2.1825362749E+00   3.2462531911E+00
  1.8588659290E+00   3.9761711493E+00   3.2941664808E+00
  3.5573681454E+00   5.0753349129E+00   7.7777625262E-02
  4.0454826659E+00   1.8618091106E+00   8.4966895072E-01
  2.6004598825E+00   1.2359944897E+00   2.7979695925E+00
  4.1614684177E+00   1.8970642029E+00   4.4955596854E+00
  2.3104505799E+00   2.7356100524E+00   4.5772934647E+00
  3.0312463205E+00   4.0099058592E+00   1.3348200709E+00
  3.2250790071E+00   2.2646837061E+00   2.4855510536E+00
  4.0241349705E+00   3.8354430446E+00   3.2601252706E+00
:V(Bohr/atu):
 -4.1320509044E-03  -1.0462696093E-02   1.4918603476E-02
  1.1402062234E-04   1.4977037338E-02  -5.5018021641E-03
 -1.8087568558E-03  -1.2918023484E-02   8.3710587017E-03
 -3.3090163617E-03  -2.1892508414E-02   1.1115492839E-02
  3.0959389675E-03  -8.4608810444E-03   1.2792633112E-02
 -1.0726966843E-02   8.9577930015E-03   5.7889138322E-03
  2.8241982239E-03  -1.6084463759E-02   9.7940339464E-03
  1.3761230893E-02   6.5461644600E-03  -9.7083982676E-03
  2.0530640392E-02  -1.0887095969E-02  -2.0826576035E-03
  2.1429464638E-03   9.7703605712E-03  -1.3938418142E-02
 -5.7658629852E-03   2.0484251276E-02  -2.0081263551E-03
  2.6546244412E-03   1.2694499969E-02   1.4844498154E-02
 -1.1908100690E-02   8.7406741615E-03  -1.5268557994E-02
 -2.7454987449E-02   9.3367399824E-03  -3.0572739033E-03
  1.4531604551E-02  -1.6196932328E-02  -9.1032787178E-03
  5.4505375339E-03   5.3950803310E-03  -1.6956720915E-02
:TEL(K):   1.0000000000E+06
:TIO(K):   1.0000000000E+06
