:MDSTEP: 20
:R(Bohr):
  4.8890608441E+00   5.0549980493E+00   7.0674758412E-01
  1.6042850658E+00   2.0819116993E+00   1.2366385309E+00
  5.1170232036E+00   4.7802203598E+00   3.1555056886E+00
  1.2636756276E+00   7.5899656449E-01   4.2360615771E+00
  1.5859935592E-01   2.2167428412E+00   5.1515470486E-01
  9.6091558806E-01   3.9710182734E+00   1.7543074513E+00
  1.8011342874E-01   2.1825364333E+00   3.2462532412E+00
  1.8588657645E+00   3.9761716177E+00   3.2941667799E+00
  3.5573679372E+00   5.0753344917E+00   7.7777874383E-02
  4.0454827629E+00   1.8618087931E+00   8.4966923933E-01
  2.6004597829E+00   1.2359944562E+00   2.7979694940E+00
  4.1614685998E+00   1.8970643964E+00   4.4955593412E+00
  2.3104503573E+00   2.7356104055E+00   4.5772936991E+00
  3.0312463417E+00   4.0099062041E+00   1.3348196419E+00
  3.2250791888E+00   2.2646833575E+00   2.4855512308E+00
  4.0241351291E+00   3.8354429175E+00   3.2601253950E+00
:V(Bohr/atu):
 -4.1320707073E-03  -1.0462707283E-02   1.4918628866E-02
  1.1400779821E-04   1.4977042840E-02  -5.5018222608E-03
 -1.8087364062E-03  -1.2918042669E-02   8.3710393122E-03
 -3.3090067599E-03  -2.1892522104E-02   1.1115462258E-02
  3.0959963065E-03  -8.4608730470E-03   1.2792635068E-02
 -1.0726987388E-02   8.9578015090E-03   5.7888733146E-03
  2.8241567059E-03  -1.6084449935E-02   9.7940351972E-03
  1.3761211295E-02   6.5462251955E-03  -9.7083463870E-03
  2.0530598781E-02  -1.0887156811E-02  -2.0826292988E-03
  2.1429606399E-03   9.7703263509E-03  -1.3938368535E-02
 -5.7658649111E-03   2.0484249756E-02  -2.0081372622E-03
  2.6546459377E-03   1.2694529214E-02   1.4844441719E-02
 -1.1908123487E-02   8.7407195362E-03  -1.5268526153E-02
 -2.7454984162E-02   9.3367875939E-03  -3.0573425773E-03
  1.4531633171E-02  -1.6196990436E-02  -9.1032487674E-03
  5.4505631859E-03   5.3950602897E-03  -1.6956694493E-02
:TEL(K):   1.0000000000E+06
:TIO(K):   1.0000000000E+06
