:MDSTEP: 30
:R(Bohr):
  3.6131492076E-01   4.0920856764E-01   2.3775998823E-01
  3.9132959223E+00   1.5377510239E+01   4.1222429512E+00
  8.0241919199E+00   1.5215080602E+01   1.0360985231E-01
  1.1400311657E+01   1.5381372854E+01   3.6337762950E+00
  1.5607293293E-01   7.9472217278E+00   1.5386689000E+01
  3.7427807913E+00   7.9448828937E+00   3.8193486282E+00
  7.2912482736E+00   7.4290570262E+00   1.5786720670E-01
  1.1570501069E+01   7.8099226289E+00   4.0549236421E+00
  5.6718929157E-01   1.5198559488E+01   7.7670804089E+00
  3.6480796349E+00   3.3129536482E-02   1.1254675110E+01
  7.7207137842E+00   5.1486907225E-02   7.8278190425E+00
  1.1626586476E+01   1.5203468179E+01   1.1803050521E+01
  3.0264620627E-01   7.7265103895E+00   7.9129338947E+00
  4.2546103912E+00   7.9162074388E+00   1.1521105758E+01
  7.3322726226E+00   8.0421884159E+00   7.5524681526E+00
  1.1571957744E+01   7.2735321472E+00   1.1527483885E+01
  9.7495294561E-02   3.9472093995E+00   3.9535541333E+00
  3.7265944109E+00   3.8821461043E+00   1.2823309775E-02
  7.8762309155E+00   3.6364186746E+00   3.4078416797E+00
  1.1400490087E+01   3.8245502481E+00   1.5243757979E+01
  3.4209468628E-01   1.1459403181E+01   3.9337738053E+00
  3.6185129800E+00   1.1605284732E+01   4.9936165790E-01
  7.8748531357E+00   1.1743037492E+01   3.8562895676E+00
  1.1058805705E+01   1.1546093951E+01   8.0115842883E-02
  1.4865378828E-01   3.7142279023E+00   1.1264710745E+01
  3.8276992395E+00   3.7028485775E+00   8.0095301458E+00
  7.9648465646E+00   3.7791007624E+00   1.1577835573E+01
  1.1396709221E+01   3.9840562635E+00   7.8603711501E+00
  3.0551005347E-01   1.1566704443E+01   1.1545081137E+01
  3.6883752566E+00   1.1271941033E+01   7.8511329336E+00
  7.8923040643E+00   1.1796549603E+01   1.1755185666E+01
  1.1671782841E+01   1.1573651173E+01   7.8672049440E+00
:V(Bohr/atu):
 -9.0975678732E-05   5.0343727330E-04   3.0305598565E-04
  1.5058783973E-04  -3.6659902147E-05   3.1790244914E-04
  3.2699397593E-04  -2.3102086038E-04  -3.1104217037E-04
 -1.5121558239E-04  -4.3780677514E-05  -2.3001279517E-04
  1.9646793399E-04   2.7398966765E-04  -3.4301393456E-05
 -1.6354963808E-04   3.1649466515E-04  -3.5759725915E-05
 -4.7521371209E-04  -3.3464384020E-04   2.1315173688E-04
  1.4815820603E-05   1.3757083157E-04   2.5294149278E-04
  5.8651856746E-05  -2.7298697681E-04   3.2447505943E-05
 -1.8157863475E-04   3.1337399085E-05  -3.0173809056E-04
  3.1801075602E-05   6.5796707553E-05  -2.3648209269E-04
  1.2935956702E-04  -2.6277453029E-04   3.1537359686E-04
  3.8164952237E-04   4.2174087709E-05   2.7400806301E-04
  4.8153914626E-04   2.3908928530E-04  -4.2814051464E-05
 -4.3483077247E-04   4.0256530878E-04  -1.9767075336E-04
  3.1463343917E-06  -5.7194029234E-04  -2.4529820954E-05
  1.7515882694E-04   1.0681794144E-04   1.1998259036E-04
 -1.9430522556E-04   4.2340489492E-05   9.3835944824E-05
  2.4368484366E-04  -2.9767450119E-04  -6.7236986750E-04
 -3.0933207296E-04   2.5858678848E-05  -2.1306608922E-04
  1.7893278492E-04  -1.4467702602E-04   1.0236390152E-04
 -3.1578163718E-04   5.8021245990E-05   8.3580598704E-05
  2.5856417673E-04   2.3124510750E-04  -1.1374377820E-04
 -7.9277987288E-04   7.7863080223E-06   1.5936820076E-04
  2.1212854383E-04  -1.5799204086E-04  -4.5519388890E-04
 -9.9460317189E-05  -1.9843515008E-04   4.6785576382E-04
  4.2750699638E-04  -8.1534166558E-05  -4.6963354993E-06
 -2.2356122468E-04   1.5610023892E-04   2.5842300229E-04
  6.8477804409E-05   3.6028953021E-05  -1.1331418648E-04
 -3.7140612977E-04  -3.6150576026E-04  -4.7807069803E-04
  3.6584919764E-04   3.1188849319E-04   1.8612293110E-04
  1.0958310122E-04   1.7245344856E-05   2.9596407477E-04
:Pm_ion:
 -6.8765768609E+01   3.8053303396E+02   2.2907086899E+02
  1.1382480116E+02  -2.7710113114E+01   2.4029286247E+02
  2.4716487306E+02  -1.7462169285E+02  -2.3510738489E+02
 -1.1429929288E+02  -3.3092492207E+01  -1.7385972680E+02
  1.4850417909E+02   2.0710051686E+02  -2.5927387607E+01
 -1.2362223316E+02   2.3922876106E+02  -2.7029697080E+01
 -3.5919969624E+02  -2.5294717447E+02   1.6111496194E+02
  1.1198831441E+01   1.0398563773E+02   1.9119083701E+02
  4.4333167564E+01  -2.0634261313E+02   2.4526090013E+01
 -1.3724980737E+02   2.3686993758E+01  -2.2807471189E+02
  2.4037472837E+01   4.9733744555E+01  -1.7874967346E+02
  9.7778990788E+01  -1.9862333316E+02   2.3838137938E+02
  2.8847735033E+02   3.1878119483E+01   2.0711442136E+02
  3.6398090093E+02   1.8072037163E+02  -3.2361848762E+01
 -3.2867545151E+02   3.0428696174E+02  -1.4941335394E+02
  2.3782191654E+00  -4.3231239766E+02  -1.8541350999E+01
  1.3781190741E+02   8.4042491674E+01   9.4400207640E+01
 -1.5287595962E+02   3.3312758023E+01   7.3828483358E+01
  1.9172698115E+02  -2.3420510124E+02  -5.2900887465E+02
 -2.4337707521E+02   2.0345157121E+01  -1.6763667965E+02
  1.4078119167E+02  -1.1382935854E+02   8.0538130817E+01
 -2.4845147975E+02   4.5650103508E+01   6.5759756051E+01
  2.0343378067E+02   1.8193961390E+02  -8.9491619144E+01
 -6.2374536497E+02   6.1261312317E+00   1.2538811838E+02
  1.6689903530E+02  -1.2430537979E+02  -3.5813860578E+02
 -7.8253641354E+01  -1.5612531214E+02   3.6810074793E+02
  3.3635504205E+02  -6.4149658962E+01  -3.6949947901E+00
 -1.7589406902E+02   1.2281694304E+02   2.0332270709E+02
  5.3877141139E+01   2.8346951304E+01  -8.9153623878E+01
 -2.9221585952E+02  -2.8442642162E+02  -3.7613767986E+02
  2.8784376233E+02   2.4538842202E+02   1.4643827317E+02
  8.6218071122E+01   1.3568336293E+01   2.3285936759E+02
:NPH_BMASS: 0.1
:NPH_INIT_Hamiltonian: -103.681526754895
:KE: 0.169593982084559
:Kbaro: 0.0247719351576401
:Ubaro: 0
:kinetic_stress: 
 0.000286436486197465 5.86673842354126e-06 -8.76313947832415e-06 
 5.86673842354126e-06 0.000190441075842208 4.45507138817922e-05 
 -8.76313947832415e-06 4.45507138817922e-05 0.000239211979226658
:Pm_metric_tensor: 
 0.633462683323755 0.00133693250441548 -0.00475109342346739 
 0.00133693250441548 0.621688710831898 0.000428526188134285 
 -0.00475109342346739 0.000428526188134285 0.628755115803246
:LATVEC_SCALE:   1.5410719689E+01   1.5410719689E+01   1.5410719689E+01
:LatVec: 
   1.0000000000E+00   0.0000000000E+00   0.0000000000E+00
   6.1232339957E-17   1.0000000000E+00   0.0000000000E+00
   6.1232339957E-17   6.1232339957E-17   1.0000000000E+00
:INITIAL_ANGLES:   9.0000000000E+01   9.0000000000E+01   9.0000000000E+01
:ROTATION_MATRIX: 
   1.0000000000E+00   0.0000000000E+00   0.0000000000E+00
   0.0000000000E+00   1.0000000000E+00   0.0000000000E+00
   0.0000000000E+00   0.0000000000E+00   1.0000000000E+00
:TTHRMI(K): 1120
:EXTERNAL_PRESSURE: 0
:EXTERNAL_STRESS: 0 0 0 0 0 0 GPa
:TEL(K):   1.1200000000E+03
:TIO(K):   1.1516891161E+03
