:RELAXSTEP: 37
:E(Ha): -4.080081323979486E+01
:R(Bohr):
   1.063204769688266    1.063204836747438    5.642789744585844
   2.174779950208439    6.367359989164409    2.210340752677210
   6.367360045427319    2.174779985674170    2.210340659034381
   6.412312242515283    6.412312362217188    5.402215352527244
   7.526295445578399    7.526295365437920    0.638453837064971
   0.197320407040788    3.983870405375893    4.167721353006842
   3.983870357376139    0.197320588458106    4.167721243179471
   5.549877348165354    5.549877032924880    0.392521957924027
:ISFD: 0
:ISRESET: 0
:STEP: 6
:DX:
  -0.025288295216915
  -0.025288309229174
   0.022448336926768
   0.011755560412952
   0.001529304272114
  -0.009542636668772
   0.001529188866649
   0.011755559446425
  -0.009542535769593
   0.006269742509042
   0.006269662818698
  -0.065760000865718
  -0.067914083539819
  -0.067913932718080
   0.057045834016112
   0.008150052275317
  -0.012304281964592
   0.008256214081316
  -0.012304275586387
   0.008149898431613
   0.008256325056865
   0.077802110279161
   0.077802098942997
  -0.011161536776977
  -0.013183420164004
  -0.013183438415920
   0.018741780206254
   0.007892314401661
   0.001293031593391
  -0.005793937989009
   0.001292950411622
   0.007892332194018
  -0.005793857803111
   0.002992958461527
   0.002992897183538
  -0.032856185160556
  -0.000649843183077
  -0.000649773666701
   0.035655958762500
   0.005826969128483
  -0.011337215870898
   0.004234159994930
  -0.011337210410409
   0.005826886353148
   0.004234232603716
   0.007165281354198
   0.007165280629425
  -0.018422150614724
  -0.025882222777731
  -0.025882271912921
   0.072652172701410
   0.034411263310739
  -0.006796552364937
  -0.009673443399499
  -0.006796766552664
   0.034411284650200
  -0.009673227322629
   0.001843998631609
   0.001843795463138
  -0.056239638331133
   0.009325229726948
   0.009325486022898
   0.071751634013570
   0.025938469959009
  -0.048148908629296
   0.004897659428743
  -0.048148857842146
   0.025938211218397
   0.004897866361913
   0.009308885544234
   0.009308955552521
  -0.078613023452376
  -0.006094427874894
  -0.006094474625930
   0.025110533811998
   0.002569046890350
  -0.009184366873398
   0.002469374202362
  -0.009184392174076
   0.002569056896712
   0.002469412397219
   0.003792903000329
   0.003792860305005
  -0.022878380744355
   0.005387914056334
   0.005387920001754
  -0.004478090757271
  -0.002377953565138
   0.007728272804143
  -0.003217722145003
   0.007728281265168
  -0.002378015956099
  -0.003217668448169
  -0.001821371598074
  -0.001821252552185
   0.003742541683218
   0.003483181813836
   0.003483193748566
  -0.006052306974583
  -0.000650194602426
   0.002354060296632
  -0.000254446153597
   0.002354066352862
  -0.000650200991440
  -0.000254454898190
  -0.001356957208654
  -0.001356951077288
   0.006041352890768
  -0.001473680337212
  -0.001473680682174
  -0.001888770413184
   0.001005475868108
  -0.005149214513072
   0.001351580288129
  -0.005149208434828
   0.001005478280354
   0.001351570165336
   0.001787316548312
   0.001787314938422
  -0.000294524904678
   0.000907147089909
   0.000907143430365
   0.001353635791702
  -0.000268457886403
  -0.000168158849927
   0.000333298031947
  -0.000168160279711
  -0.000268461408271
   0.000333300486811
  -0.000063101111412
  -0.000063109601680
  -0.000294040108018
   0.000759603263741
   0.000759606043549
  -0.002431466415207
   0.000144264360261
  -0.001999609405376
   0.000316648600784
  -0.001999603547607
   0.000144250610679
   0.000316654536021
   0.000688308111221
   0.000688339180661
   0.000071969075960
   0.000000000000000
   0.000000000000000
   0.000000000000000
   0.000000000000000
   0.000000000000000
   0.000000000000000
   0.000000000000000
   0.000000000000000
   0.000000000000000
   0.000000000000000
   0.000000000000000
   0.000000000000000
   0.000000000000000
   0.000000000000000
   0.000000000000000
   0.000000000000000
   0.000000000000000
   0.000000000000000
   0.000000000000000
   0.000000000000000
   0.000000000000000
   0.000000000000000
   0.000000000000000
   0.000000000000000
   0.000000000000000
   0.000000000000000
   0.000000000000000
   0.000000000000000
   0.000000000000000
   0.000000000000000
   0.000000000000000
   0.000000000000000
   0.000000000000000
   0.000000000000000
   0.000000000000000
   0.000000000000000
   0.000000000000000
   0.000000000000000
   0.000000000000000
   0.000000000000000
   0.000000000000000
   0.000000000000000
   0.000000000000000
   0.000000000000000
   0.000000000000000
   0.000000000000000
   0.000000000000000
   0.000000000000000
   0.000000000000000
   0.000000000000000
   0.000000000000000
   0.000000000000000
   0.000000000000000
   0.000000000000000
   0.000000000000000
   0.000000000000000
   0.000000000000000
   0.000000000000000
   0.000000000000000
   0.000000000000000
   0.000000000000000
   0.000000000000000
   0.000000000000000
   0.000000000000000
   0.000000000000000
   0.000000000000000
   0.000000000000000
   0.000000000000000
   0.000000000000000
   0.000000000000000
   0.000000000000000
   0.000000000000000
   0.000000000000000
   0.000000000000000
   0.000000000000000
   0.000000000000000
   0.000000000000000
   0.000000000000000
   0.000000000000000
   0.000000000000000
   0.000000000000000
   0.000000000000000
   0.000000000000000
   0.000000000000000
   0.000000000000000
   0.000000000000000
   0.000000000000000
   0.000000000000000
   0.000000000000000
   0.000000000000000
   0.000000000000000
   0.000000000000000
   0.000000000000000
   0.000000000000000
   0.000000000000000
   0.000000000000000
   0.000000000000000
   0.000000000000000
   0.000000000000000
   0.000000000000000
   0.000000000000000
   0.000000000000000
   0.000000000000000
   0.000000000000000
   0.000000000000000
   0.000000000000000
   0.000000000000000
   0.000000000000000
   0.000000000000000
   0.000000000000000
   0.000000000000000
   0.000000000000000
   0.000000000000000
   0.000000000000000
   0.000000000000000
   0.000000000000000
   0.000000000000000
   0.000000000000000
   0.000000000000000
   0.000000000000000
   0.000000000000000
   0.000000000000000
   0.000000000000000
   0.000000000000000
   0.000000000000000
   0.000000000000000
   0.000000000000000
   0.000000000000000
   0.000000000000000
   0.000000000000000
   0.000000000000000
   0.000000000000000
   0.000000000000000
   0.000000000000000
   0.000000000000000
   0.000000000000000
   0.000000000000000
   0.000000000000000
   0.000000000000000
   0.000000000000000
   0.000000000000000
   0.000000000000000
   0.000000000000000
   0.000000000000000
   0.000000000000000
   0.000000000000000
   0.000000000000000
   0.000000000000000
   0.000000000000000
   0.000000000000000
   0.000000000000000
   0.000000000000000
   0.000000000000000
   0.000000000000000
   0.000000000000000
   0.000000000000000
   0.000000000000000
   0.000000000000000
   0.000000000000000
   0.000000000000000
   0.000000000000000
   0.000000000000000
   0.000000000000000
   0.000000000000000
   0.000000000000000
   0.000000000000000
   0.000000000000000
   0.000000000000000
   0.000000000000000
   0.000000000000000
   0.000000000000000
   0.000000000000000
   0.000000000000000
   0.000000000000000
   0.000000000000000
   0.000000000000000
   0.000000000000000
   0.000000000000000
   0.000000000000000
   0.000000000000000
   0.000000000000000
   0.000000000000000
   0.000000000000000
   0.000000000000000
   0.000000000000000
   0.000000000000000
   0.000000000000000
   0.000000000000000
   0.000000000000000
   0.000000000000000
   0.000000000000000
   0.000000000000000
   0.000000000000000
   0.000000000000000
   0.000000000000000
   0.000000000000000
   0.000000000000000
   0.000000000000000
   0.000000000000000
   0.000000000000000
   0.000000000000000
   0.000000000000000
   0.000000000000000
   0.000000000000000
   0.000000000000000
   0.000000000000000
   0.000000000000000
   0.000000000000000
   0.000000000000000
   0.000000000000000
   0.000000000000000
   0.000000000000000
   0.000000000000000
   0.000000000000000
   0.000000000000000
   0.000000000000000
   0.000000000000000
   0.000000000000000
   0.000000000000000
   0.000000000000000
   0.000000000000000
   0.000000000000000
   0.000000000000000
   0.000000000000000
   0.000000000000000
   0.000000000000000
   0.000000000000000
   0.000000000000000
   0.000000000000000
   0.000000000000000
   0.000000000000000
   0.000000000000000
   0.000000000000000
   0.000000000000000
   0.000000000000000
   0.000000000000000
   0.000000000000000
   0.000000000000000
   0.000000000000000
   0.000000000000000
   0.000000000000000
   0.000000000000000
   0.000000000000000
   0.000000000000000
   0.000000000000000
   0.000000000000000
   0.000000000000000
   0.000000000000000
   0.000000000000000
   0.000000000000000
   0.000000000000000
   0.000000000000000
   0.000000000000000
   0.000000000000000
   0.000000000000000
   0.000000000000000
   0.000000000000000
   0.000000000000000
   0.000000000000000
   0.000000000000000
   0.000000000000000
   0.000000000000000
   0.000000000000000
   0.000000000000000
   0.000000000000000
   0.000000000000000
   0.000000000000000
   0.000000000000000
   0.000000000000000
   0.000000000000000
   0.000000000000000
   0.000000000000000
   0.000000000000000
   0.000000000000000
   0.000000000000000
   0.000000000000000
   0.000000000000000
   0.000000000000000
   0.000000000000000
   0.000000000000000
   0.000000000000000
   0.000000000000000
   0.000000000000000
   0.000000000000000
   0.000000000000000
   0.000000000000000
   0.000000000000000
   0.000000000000000
   0.000000000000000
   0.000000000000000
   0.000000000000000
   0.000000000000000
   0.000000000000000
   0.000000000000000
   0.000000000000000
   0.000000000000000
   0.000000000000000
   0.000000000000000
   0.000000000000000
   0.000000000000000
   0.000000000000000
   0.000000000000000
   0.000000000000000
   0.000000000000000
   0.000000000000000
   0.000000000000000
   0.000000000000000
   0.000000000000000
   0.000000000000000
   0.000000000000000
   0.000000000000000
   0.000000000000000
   0.000000000000000
   0.000000000000000
   0.000000000000000
   0.000000000000000
   0.000000000000000
   0.000000000000000
   0.000000000000000
   0.000000000000000
   0.000000000000000
   0.000000000000000
   0.000000000000000
   0.000000000000000
   0.000000000000000
   0.000000000000000
   0.000000000000000
   0.000000000000000
   0.000000000000000
   0.000000000000000
   0.000000000000000
   0.000000000000000
   0.000000000000000
   0.000000000000000
   0.000000000000000
   0.000000000000000
:DG:
  -0.003801874840126
  -0.003801870709373
  -0.000635718161175
   0.000762340101121
  -0.000052560928115
  -0.000967931774661
  -0.000052566302660
   0.000762329530972
  -0.000967932322541
   0.001099641242312
   0.001099640505286
  -0.010699033824284
  -0.030013283824642
  -0.030013255958770
   0.005205213776129
   0.000326093803337
   0.000955009982178
   0.001281140592832
   0.000955009724393
   0.000326072140191
   0.001281148870233
   0.030724640096266
   0.030724635437630
   0.005503112843466
  -0.002540924806100
  -0.002540927396789
   0.000200619122300
  -0.000357833924815
   0.001231932508530
  -0.001325411069538
   0.001231921659890
  -0.000357828351135
  -0.001325400542578
   0.000981408138897
   0.000981404071663
  -0.007126907397440
   0.000193008979359
   0.000193009652641
   0.006931970989799
  -0.000307878487465
   0.000284771057686
   0.001165372323706
   0.000284768065344
  -0.000307884622739
   0.001165380278209
   0.000515530374890
   0.000515523080143
   0.000314376295540
  -0.001371093974141
  -0.001371090495614
   0.004078813406129
   0.003893545357729
   0.001165120218595
  -0.001661445594493
   0.001165098540592
   0.003893547545488
  -0.001661425611958
  -0.000826597816319
  -0.000826614995638
  -0.000334880600618
   0.005007434341877
   0.005007462573214
   0.009567844598376
   0.003961501308328
  -0.008362242427000
   0.001145982138787
  -0.008362237453857
   0.003961484732546
   0.001145995958619
  -0.003467650304210
  -0.003467667151592
  -0.012280884294842
  -0.003560044365579
  -0.003560058383709
   0.005413497764683
  -0.000369229233035
  -0.002581162773532
   0.000522799457647
  -0.002581165075409
  -0.000369221505433
   0.000522805263387
   0.001727967480717
   0.001727964890651
  -0.006726349956473
   0.002013115729354
   0.002013107650238
   0.000469227479992
  -0.002111261205010
   0.007585775199716
  -0.001625420837328
   0.007585766844006
  -0.002111258837905
  -0.001625413027373
  -0.002705150175043
  -0.002705146240026
   0.003048853855465
   0.001983721014631
   0.001983727519704
  -0.001829156362608
   0.000503184142585
   0.000710709294234
  -0.000033592021102
   0.000710710212293
   0.000503181350740
  -0.000033594073846
  -0.000794773171121
  -0.000794770682853
   0.002231592877173
  -0.001148779708262
  -0.001148777770696
  -0.000971655133225
   0.000928504660710
  -0.003508755019685
   0.000615046696527
  -0.003508749585766
   0.000928501840089
   0.000615043733399
   0.001326182434930
   0.001326183468466
  -0.000593685716319
   0.000520674238128
   0.000520675328189
  -0.000088512091155
   0.000127703447629
  -0.000017469981020
   0.000039142915157
  -0.000017469666487
   0.000127702887342
   0.000039142418253
  -0.000120633127401
  -0.000120632975724
   0.000300671151542
  -0.000065905918514
  -0.000065905997188
  -0.000502760790608
   0.000215456537669
  -0.000819425787952
   0.000107136571429
  -0.000819424592684
   0.000215455501934
   0.000107136098510
   0.000159599081660
   0.000159601024419
  -0.000001956273128
   0.000000000000000
   0.000000000000000
   0.000000000000000
   0.000000000000000
   0.000000000000000
   0.000000000000000
   0.000000000000000
   0.000000000000000
   0.000000000000000
   0.000000000000000
   0.000000000000000
   0.000000000000000
   0.000000000000000
   0.000000000000000
   0.000000000000000
   0.000000000000000
   0.000000000000000
   0.000000000000000
   0.000000000000000
   0.000000000000000
   0.000000000000000
   0.000000000000000
   0.000000000000000
   0.000000000000000
   0.000000000000000
   0.000000000000000
   0.000000000000000
   0.000000000000000
   0.000000000000000
   0.000000000000000
   0.000000000000000
   0.000000000000000
   0.000000000000000
   0.000000000000000
   0.000000000000000
   0.000000000000000
   0.000000000000000
   0.000000000000000
   0.000000000000000
   0.000000000000000
   0.000000000000000
   0.000000000000000
   0.000000000000000
   0.000000000000000
   0.000000000000000
   0.000000000000000
   0.000000000000000
   0.000000000000000
   0.000000000000000
   0.000000000000000
   0.000000000000000
   0.000000000000000
   0.000000000000000
   0.000000000000000
   0.000000000000000
   0.000000000000000
   0.000000000000000
   0.000000000000000
   0.000000000000000
   0.000000000000000
   0.000000000000000
   0.000000000000000
   0.000000000000000
   0.000000000000000
   0.000000000000000
   0.000000000000000
   0.000000000000000
   0.000000000000000
   0.000000000000000
   0.000000000000000
   0.000000000000000
   0.000000000000000
   0.000000000000000
   0.000000000000000
   0.000000000000000
   0.000000000000000
   0.000000000000000
   0.000000000000000
   0.000000000000000
   0.000000000000000
   0.000000000000000
   0.000000000000000
   0.000000000000000
   0.000000000000000
   0.000000000000000
   0.000000000000000
   0.000000000000000
   0.000000000000000
   0.000000000000000
   0.000000000000000
   0.000000000000000
   0.000000000000000
   0.000000000000000
   0.000000000000000
   0.000000000000000
   0.000000000000000
   0.000000000000000
   0.000000000000000
   0.000000000000000
   0.000000000000000
   0.000000000000000
   0.000000000000000
   0.000000000000000
   0.000000000000000
   0.000000000000000
   0.000000000000000
   0.000000000000000
   0.000000000000000
   0.000000000000000
   0.000000000000000
   0.000000000000000
   0.000000000000000
   0.000000000000000
   0.000000000000000
   0.000000000000000
   0.000000000000000
   0.000000000000000
   0.000000000000000
   0.000000000000000
   0.000000000000000
   0.000000000000000
   0.000000000000000
   0.000000000000000
   0.000000000000000
   0.000000000000000
   0.000000000000000
   0.000000000000000
   0.000000000000000
   0.000000000000000
   0.000000000000000
   0.000000000000000
   0.000000000000000
   0.000000000000000
   0.000000000000000
   0.000000000000000
   0.000000000000000
   0.000000000000000
   0.000000000000000
   0.000000000000000
   0.000000000000000
   0.000000000000000
   0.000000000000000
   0.000000000000000
   0.000000000000000
   0.000000000000000
   0.000000000000000
   0.000000000000000
   0.000000000000000
   0.000000000000000
   0.000000000000000
   0.000000000000000
   0.000000000000000
   0.000000000000000
   0.000000000000000
   0.000000000000000
   0.000000000000000
   0.000000000000000
   0.000000000000000
   0.000000000000000
   0.000000000000000
   0.000000000000000
   0.000000000000000
   0.000000000000000
   0.000000000000000
   0.000000000000000
   0.000000000000000
   0.000000000000000
   0.000000000000000
   0.000000000000000
   0.000000000000000
   0.000000000000000
   0.000000000000000
   0.000000000000000
   0.000000000000000
   0.000000000000000
   0.000000000000000
   0.000000000000000
   0.000000000000000
   0.000000000000000
   0.000000000000000
   0.000000000000000
   0.000000000000000
   0.000000000000000
   0.000000000000000
   0.000000000000000
   0.000000000000000
   0.000000000000000
   0.000000000000000
   0.000000000000000
   0.000000000000000
   0.000000000000000
   0.000000000000000
   0.000000000000000
   0.000000000000000
   0.000000000000000
   0.000000000000000
   0.000000000000000
   0.000000000000000
   0.000000000000000
   0.000000000000000
   0.000000000000000
   0.000000000000000
   0.000000000000000
   0.000000000000000
   0.000000000000000
   0.000000000000000
   0.000000000000000
   0.000000000000000
   0.000000000000000
   0.000000000000000
   0.000000000000000
   0.000000000000000
   0.000000000000000
   0.000000000000000
   0.000000000000000
   0.000000000000000
   0.000000000000000
   0.000000000000000
   0.000000000000000
   0.000000000000000
   0.000000000000000
   0.000000000000000
   0.000000000000000
   0.000000000000000
   0.000000000000000
   0.000000000000000
   0.000000000000000
   0.000000000000000
   0.000000000000000
   0.000000000000000
   0.000000000000000
   0.000000000000000
   0.000000000000000
   0.000000000000000
   0.000000000000000
   0.000000000000000
   0.000000000000000
   0.000000000000000
   0.000000000000000
   0.000000000000000
   0.000000000000000
   0.000000000000000
   0.000000000000000
   0.000000000000000
   0.000000000000000
   0.000000000000000
   0.000000000000000
   0.000000000000000
   0.000000000000000
   0.000000000000000
   0.000000000000000
   0.000000000000000
   0.000000000000000
   0.000000000000000
   0.000000000000000
   0.000000000000000
   0.000000000000000
   0.000000000000000
   0.000000000000000
   0.000000000000000
   0.000000000000000
   0.000000000000000
   0.000000000000000
   0.000000000000000
   0.000000000000000
   0.000000000000000
   0.000000000000000
   0.000000000000000
   0.000000000000000
   0.000000000000000
   0.000000000000000
   0.000000000000000
   0.000000000000000
   0.000000000000000
   0.000000000000000
   0.000000000000000
   0.000000000000000
   0.000000000000000
   0.000000000000000
   0.000000000000000
   0.000000000000000
   0.000000000000000
   0.000000000000000
   0.000000000000000
   0.000000000000000
   0.000000000000000
   0.000000000000000
   0.000000000000000
   0.000000000000000
   0.000000000000000
   0.000000000000000
   0.000000000000000
   0.000000000000000
   0.000000000000000
   0.000000000000000
   0.000000000000000
   0.000000000000000
   0.000000000000000
   0.000000000000000
   0.000000000000000
   0.000000000000000
   0.000000000000000
   0.000000000000000
   0.000000000000000
   0.000000000000000
   0.000000000000000
   0.000000000000000
   0.000000000000000
   0.000000000000000
   0.000000000000000
   0.000000000000000
   0.000000000000000
   0.000000000000000
   0.000000000000000
   0.000000000000000
   0.000000000000000
   0.000000000000000
   0.000000000000000
   0.000000000000000
   0.000000000000000
   0.000000000000000
   0.000000000000000
   0.000000000000000
   0.000000000000000
   0.000000000000000
   0.000000000000000
   0.000000000000000
   0.000000000000000
   0.000000000000000
   0.000000000000000
   0.000000000000000
   0.000000000000000
   0.000000000000000
   0.000000000000000
   0.000000000000000
   0.000000000000000
:IYS:
  99.724608908428067
1748.174784614715009
 296.723498459300458
1745.110180784073691
10748.232294341816669
183015.412044341035653
   0.000000000000000
   0.000000000000000
   0.000000000000000
   0.000000000000000
   0.000000000000000
   0.000000000000000
   0.000000000000000
   0.000000000000000
   0.000000000000000
   0.000000000000000
   0.000000000000000
   0.000000000000000
   0.000000000000000
   0.000000000000000
:FOLD:
   0.000015342782242
   0.000015339335939
   0.000631530976620
  -0.000490217443911
   0.000072840040524
   0.000123006648013
   0.000072839060400
  -0.000490219345261
   0.000123008359177
   0.000103421404142
   0.000103415750960
  -0.000409623880636
   0.000504187125866
   0.000504188786459
  -0.000951944391184
  -0.000191064422144
  -0.000394579663840
   0.000168845374903
  -0.000394577452352
  -0.000191071815684
   0.000168849366326
   0.000380068945756
   0.000380086910902
   0.000146327546781
:RDISP:
   0.000571165855388
   0.000571150088730
   0.004684770282010
  -0.001267131741009
  -0.000472813348521
   0.000827916261021
  -0.000472819700606
  -0.001267140073874
   0.000827926505431
   0.000340882680993
   0.000340855777345
  -0.002647247474493
   0.002308343553659
   0.002308352740570
  -0.005167891891748
  -0.000416798271574
  -0.002858460709457
   0.000579264936555
  -0.002858447380836
  -0.000416837270607
   0.000579285765062
   0.001794805003986
   0.001794892795811
   0.000315975616160
