:MDSTEP: 10
:R(Bohr):
  1.8888453952E+01   2.8735232086E-01   1.8239146004E-01
  1.1608025187E-02   1.8830303356E+01   6.5131639105E+00
  2.8774617018E-01   1.8708068349E+01   1.2469009439E+01
  1.8783946223E+01   6.2412766965E+00   1.8711747257E+01
  1.4113614127E-01   6.4667742966E+00   6.2861599678E+00
  1.8852434110E+01   6.4546103017E+00   1.2573944730E+01
  1.8592176103E+01   1.2350893576E+01   1.0968225010E-01
  4.2611501181E-02   1.2652895301E+01   6.4609026399E+00
  2.1320060071E-01   1.2401630773E+01   1.2657916165E+01
  6.1165283628E+00   1.8888026352E+01   1.8640351023E+01
  6.3157389691E+00   6.0144430791E-03   6.1709499746E+00
  6.3169461770E+00   1.8698443173E+01   1.2780530128E+01
  6.5026514108E+00   6.2806833752E+00   1.5859819095E-01
  6.5996933227E+00   6.4414834474E+00   6.2778703079E+00
  5.9858213090E+00   6.5373792494E+00   1.2472896314E+01
  6.3015729399E+00   1.2250200433E+01   1.8873937885E+01
  6.1419859342E+00   1.2846011151E+01   6.2881575671E+00
  6.2143037955E+00   1.2601731089E+01   1.2419708104E+01
  1.2687860572E+01   7.4561705311E-02   1.7239087582E-01
  1.2441860064E+01   1.8880684130E+01   6.1880348294E+00
:V(Bohr/atu):
 -3.3777995005E-05   7.0186397965E-04   4.3946181770E-04
  2.2759712365E-05  -1.6665344081E-04   5.1553145985E-04
  7.2855755749E-04  -4.5817181458E-04  -3.1733628074E-04
 -2.2830818913E-04  -1.4296198690E-04  -4.4482519301E-04
  3.8029002216E-04   4.0438968855E-04  -2.5986293895E-05
 -5.1520658614E-05   3.8475739093E-04  -5.5805167234E-05
 -6.8598012260E-04  -6.0164580611E-04   2.6151635700E-04
  1.5314140051E-04   1.3388358712E-04   3.8573228158E-04
  5.6026342462E-04  -4.7206609875E-04   1.3933976557E-04
 -4.3988550459E-04  -1.1994223793E-05  -6.2270773616E-04
  6.2501947967E-05   6.4135488128E-06  -3.0953894899E-04
 -8.7550670497E-07  -4.8487885852E-04   4.4780488828E-04
  4.4329453515E-04  -3.8665569582E-05   3.8523801550E-04
  6.7279435537E-04   3.3534312710E-04  -5.1057939857E-05
 -7.9980523781E-04   5.8111271825E-04  -3.0810264342E-04
 -3.5410443422E-05  -8.4061928428E-04  -5.1496315011E-05
 -4.2459379582E-04   5.9964523238E-04  -2.2964636675E-05
 -2.5542160266E-04   8.0151419662E-06  -4.3065237953E-04
  2.4705057981E-04   1.7475737408E-04   5.3314179933E-04
 -3.9985962629E-04  -3.4957761828E-05  -3.8521856618E-04
:Pm_ion:
 -3.2044835248E+01   6.6585038945E+02   4.1691630843E+02
  2.1591904224E+01  -1.5810222733E+02   4.8908338441E+02
  6.9117503556E+02  -4.3466239901E+02  -3.0105612222E+02
 -2.1659362272E+02  -1.3562641397E+02  -4.2200452894E+02
  3.6077721916E+02   3.8363990662E+02  -2.4653130907E+01
 -4.8877117097E+01   3.6501496875E+02  -5.2942220183E+01
 -6.5078226250E+02  -5.7077454595E+02   2.4809990257E+02
  1.4528366614E+02   1.2701383916E+02   3.6594323421E+02
  5.3151612862E+02  -4.4784374867E+02   1.3219128111E+02
 -4.1731483827E+02  -1.1378783946E+01  -5.9076124508E+02
  5.9294952972E+01   6.0844609476E+00  -2.9365881342E+02
 -8.3058417515E-01  -4.5999906840E+02   4.2483135826E+02
  4.2054895038E+02  -3.6681586904E+01   3.6547432523E+02
  6.3827306122E+02   3.1813621764E+02  -4.8438537648E+01
 -7.5876697455E+02   5.5129503861E+02  -2.9229619397E+02
 -3.3593522214E+01  -7.9748597170E+02  -4.8854423040E+01
 -4.0280775199E+02   5.6887662437E+02  -2.1786492390E+01
 -2.4231583831E+02   7.6038741899E+00  -4.0855881685E+02
  1.0433319588E+02   7.3802601566E+01   2.2515568996E+02
 -1.6886676708E+02  -1.4763175411E+01  -1.6268495954E+02
:NPT_NP_QMASS: 20000
:NPT_NP_BMASS: 40
:NPT_NP_SNOSE[0]: 1.02070934007165
:NPT_NP_SNOSE[1]: 0.000156795348809432
:NPT_NP_SNOSE[2]: 1.01411433934639
:NPT_NP_INIT_Hamiltonian: -52.0755236662492
:KE: 0.224101930306027
:Kbaro: 2.64808769466388e-05
:Ubaro: 0.0229364848853256
:kinetic_stress: 
 0.000232160329337108 -3.28914164175571e-05 4.8466822036527e-05 
 -3.28914164175571e-05 0.000236380667692458 -8.34040089389571e-06 
 4.8466822036527e-05 -8.34040089389571e-06 0.000159018979401898
:Pm_metric_tensor: 
 -0.573758964017653 -0.00058876533851264 0 
 -0.00058876533851264 -0.652668447463511 0 
 0 0 0
:LATVEC_SCALE:   1.8897015577E+01   1.8896982725E+01   1.8897259886E+01
:LatVec: 
   1.0000000000E+00   0.0000000000E+00   0.0000000000E+00
   0.0000000000E+00   1.0000000000E+00   0.0000000000E+00
   0.0000000000E+00   0.0000000000E+00   1.0000000000E+00
:INITIAL_ANGLES:   9.0000000000E+01   9.0000000000E+01   9.0000000000E+01
:ROTATION_MATRIX: 
   1.0000000000E+00   0.0000000000E+00   0.0000000000E+00
   0.0000000000E+00   1.0000000000E+00   0.0000000000E+00
   0.0000000000E+00   0.0000000000E+00   1.0000000000E+00
:TTHRMI(K): 2400
:EXTERNAL_PRESSURE: 0.1
:EXTERNAL_STRESS: 0 0 0 0 0 0 GPa
:TEL(K):   2.4000000000E+03
:TIO(K):   2.4830102667E+03
