:MDSTEP: 30
:R(Bohr):
  3.6131480383E-01   4.0920852047E-01   2.3775993600E-01
  3.9132958613E+00   1.5377510133E+01   4.1222428074E+00
  8.0241919574E+00   1.5215080568E+01   1.0360980616E-01
  1.1400311696E+01   1.5381372796E+01   3.6337761946E+00
  1.5607291271E-01   7.9472217203E+00   1.5386688965E+01
  3.7427807244E+00   7.9448828803E+00   3.8193486988E+00
  7.2912482199E+00   7.4290570442E+00   1.5786725021E-01
  1.1570500979E+01   7.8099226150E+00   4.0549235715E+00
  5.6718928110E-01   1.5198559411E+01   7.7670803943E+00
  3.6480796761E+00   3.3129495288E-02   1.1254675230E+01
  7.7207137699E+00   5.1486882807E-02   7.8278189722E+00
  1.1626586505E+01   1.5203467992E+01   1.1803050407E+01
  3.0264613224E-01   7.7265103596E+00   7.9129339274E+00
  4.2546102897E+00   7.9162073635E+00   1.1521105765E+01
  7.3322727363E+00   8.0421884498E+00   7.5524682024E+00
  1.1571957784E+01   7.2735321452E+00   1.1527483907E+01
  9.7495219671E-02   3.9472094205E+00   3.9535541375E+00
  3.7265943561E+00   3.8821461990E+00   1.2823186249E-02
  7.8762311625E+00   3.6364185511E+00   3.4078416307E+00
  1.1400490012E+01   3.8245503663E+00   1.5243757864E+01
  3.4209457867E-01   1.1459403166E+01   3.9337737445E+00
  3.6185128592E+00   1.1605284734E+01   4.9936156758E-01
  7.8748531988E+00   1.1743037554E+01   3.8562895845E+00
  1.1058805656E+01   1.1546093794E+01   8.0115791251E-02
  1.4865366057E-01   3.7142277517E+00   1.1264710646E+01
  3.8276992063E+00   3.7028487505E+00   8.0095301242E+00
  7.9648466125E+00   3.7791007355E+00   1.1577835389E+01
  1.1396709132E+01   3.9840562791E+00   7.8603713047E+00
  3.0550985087E-01   1.1566704526E+01   1.1545081238E+01
  3.6883752497E+00   1.1271940873E+01   7.8511329724E+00
  7.8923042449E+00   1.1796549578E+01   1.1755185675E+01
  1.1671782951E+01   1.1573651070E+01   7.8672050140E+00
:V(Bohr/atu):
 -9.0975741911E-05   5.0343712703E-04   3.0305586174E-04
  1.5058768161E-04  -3.6659903044E-05   3.1790176677E-04
  3.2699393758E-04  -2.3102078606E-04  -3.1104235913E-04
 -1.5121531943E-04  -4.3780695981E-05  -2.3001255042E-04
  1.9646754339E-04   2.7398972677E-04  -3.4301518750E-05
 -1.6354964269E-04   3.1649442737E-04  -3.5759397838E-05
 -4.7521353111E-04  -3.3464375159E-04   2.1315192784E-04
  1.4815566034E-05   1.3757090605E-04   2.5294107091E-04
  5.8651500790E-05  -2.7298700624E-04   3.2447579303E-05
 -1.8157835580E-04   3.1337200762E-05  -3.0173733651E-04
  3.1801439232E-05   6.5796719243E-05  -2.3648208358E-04
  1.2935975540E-04  -2.6277501447E-04   3.1537317189E-04
  3.8164948496E-04   4.2173974476E-05   2.7400817416E-04
  4.8153894208E-04   2.3908934217E-04  -4.2814309431E-05
 -4.3483053071E-04   4.0256548075E-04  -1.9767059556E-04
  3.1466372766E-06  -5.7194022288E-04  -2.4529295789E-05
  1.7515866584E-04   1.0681807577E-04   1.1998269826E-04
 -1.9430522643E-04   4.2340456242E-05   9.3835625366E-05
  2.4368569986E-04  -2.9767445142E-04  -6.7236991194E-04
 -3.0933218741E-04   2.5859125978E-05  -2.1306635688E-04
  1.7893230147E-04  -1.4467719012E-04   1.0236393059E-04
 -3.1578172018E-04   5.8021653332E-05   8.3580307131E-05
  2.5856426101E-04   2.3124510124E-04  -1.1374384985E-04
 -7.9277993356E-04   7.7860559765E-06   1.5936762708E-04
  2.1212788748E-04  -1.5799218613E-04  -4.5519404509E-04
 -9.9460320657E-05  -1.9843449728E-04   4.6785576527E-04
  4.2750707452E-04  -8.1534150808E-05  -4.6964105104E-06
 -2.2356148352E-04   1.5610004103E-04   2.5842349081E-04
  6.8477370885E-05   3.6029240282E-05  -1.1331387117E-04
 -3.7140593257E-04  -3.6150603749E-04  -4.7807011487E-04
  3.6584981236E-04   3.1188817246E-04   1.8612279127E-04
  1.0958322610E-04   1.7245344828E-05   2.9596432619E-04
:Pm_ion:
 -6.8765816209E+01   3.8053292254E+02   2.2907077482E+02
  1.1382468139E+02  -2.7710113729E+01   2.4029234614E+02
  2.4716484351E+02  -1.7462163628E+02  -2.3510752704E+02
 -1.1429909386E+02  -3.3092506091E+01  -1.7385954141E+02
  1.4850388352E+02   2.0710056108E+02  -2.5927482255E+01
 -1.2362223636E+02   2.3922858079E+02  -2.7029449035E+01
 -3.5919955862E+02  -2.5294710693E+02   1.6111510592E+02
  1.1198638994E+01   1.0398569379E+02   1.9119051770E+02
  4.4332898407E+01  -2.0634263490E+02   2.4526145408E+01
 -1.3724959621E+02   2.3686843798E+01  -2.2807414141E+02
  2.4037747639E+01   4.9733753279E+01  -1.7874966617E+02
  9.7779132964E+01  -1.9862369869E+02   2.3838105762E+02
  2.8847732140E+02   3.1878033822E+01   2.0711450490E+02
  3.6398074578E+02   1.8072041421E+02  -3.2362043678E+01
 -3.2867526803E+02   3.0428709104E+02  -1.4941323433E+02
  2.3784481016E+00  -4.3231234418E+02  -1.8540954001E+01
  1.3781178035E+02   8.4042597174E+01   9.4400292319E+01
 -1.5287595996E+02   3.3312731788E+01   7.3828231848E+01
  1.9172765436E+02  -2.3420506155E+02  -5.2900890842E+02
 -2.4337716471E+02   2.0345508869E+01  -1.6763688986E+02
  1.4078081098E+02  -1.1382948740E+02   8.0538153509E+01
 -2.4845154450E+02   4.5650423894E+01   6.5759526498E+01
  2.0343384653E+02   1.8193960856E+02  -8.9491675310E+01
 -6.2374541130E+02   6.1259329127E+00   1.2538766673E+02
  1.6689851852E+02  -1.2430549381E+02  -3.5813872786E+02
 -7.8253643906E+01  -1.5612479817E+02   3.6810074825E+02
  3.3635510277E+02  -6.4149646426E+01  -3.6950537993E+00
 -1.7589427228E+02   1.2281678708E+02   2.0332309099E+02
  5.3876799928E+01   2.8347177253E+01  -8.9153375594E+01
 -2.9221570371E+02  -2.8442663909E+02  -3.7613722019E+02
  2.8784424533E+02   2.4538816912E+02   1.4643816283E+02
  8.6218169182E+01   1.3568336240E+01   2.3285956488E+02
:NPH_BMASS: 0.1
:NPH_INIT_Hamiltonian: -103.681526752703
:KE: 0.169593931428875
:Kbaro: 0.0247719175899724
:Ubaro: 0
:kinetic_stress: 
 0.000286436454484278 5.8666893694958e-06 -8.76324602987278e-06 
 5.8666893694958e-06 0.000190441060930911 4.45506763855017e-05 
 -8.76324602987278e-06 4.45506763855017e-05 0.000239211815881912
:Pm_metric_tensor: 
 0.633462459406307 0.00133688602850189 -0.004751100646281 
 0.00133688602850189 0.621688488306418 0.000428474078821065 
 -0.004751100646281 0.000428474078821065 0.628754886479433
:LATVEC_SCALE:   1.5410719640E+01   1.5410719640E+01   1.5410719640E+01
:LatVec: 
   1.0000000000E+00   0.0000000000E+00   0.0000000000E+00
   0.0000000000E+00   1.0000000000E+00   0.0000000000E+00
   0.0000000000E+00   0.0000000000E+00   1.0000000000E+00
:INITIAL_ANGLES:   9.0000000000E+01   9.0000000000E+01   9.0000000000E+01
:ROTATION_MATRIX: 
   1.0000000000E+00   0.0000000000E+00   0.0000000000E+00
   0.0000000000E+00   1.0000000000E+00   0.0000000000E+00
   0.0000000000E+00   0.0000000000E+00   1.0000000000E+00
:TTHRMI(K): 1120
:EXTERNAL_PRESSURE: 0
:EXTERNAL_STRESS: 0 0 0 0 0 0 GPa
:TEL(K):   1.1200000000E+03
:TIO(K):   1.1516887721E+03
