:MDSTEP: 20
:R(Bohr):
  3.7821386612E-01   2.7610243971E-01   1.5877961297E-01
  3.8306488250E+00   1.5184616989E+01   3.9859888361E+00
  7.8282405005E+00   1.5074999344E+01   1.7563133011E-01
  1.1293130908E+01   1.5189362369E+01   3.6481797039E+00
  1.0436087852E-01   7.7713969978E+00   1.5192768445E+01
  3.7321556689E+00   7.7628257450E+00   3.7783632147E+00
  7.3190243007E+00   7.4168571310E+00   1.0285052253E-01
  1.1415089306E+01   7.6739189176E+00   3.9386631094E+00
  5.3229358748E-01   1.5066269254E+01   7.6519541746E+00
  3.6530763425E+00   2.2842110153E-02   1.1191072798E+01
  7.6121790176E+00   3.4856691517E-02   7.7850637292E+00
  1.1445840575E+01   1.5068900197E+01   1.1568578988E+01
  2.0176186061E-01   7.6158114362E+00   7.7412941179E+00
  4.0760765696E+00   7.7499802251E+00   1.1381611206E+01
  7.3492936068E+00   7.8332635406E+00   7.5012979993E+00
  1.1418485849E+01   7.3193908223E+00   1.1383528878E+01
  5.8239803863E-02   3.8678991419E+00   3.8703576117E+00
  3.7226279205E+00   3.8211142119E+00   1.5203493003E+01
  7.7131027467E+00   3.6601887305E+00   3.5222994422E+00
  1.1317801763E+01   3.7738423895E+00   1.5097012359E+01
  3.0429600490E-01   1.1342919572E+01   3.8577886293E+00
  3.6493334170E+00   1.1438569231E+01   4.8043006716E-01
  7.7087343844E+00   1.1530457410E+01   3.8253060061E+00
  1.1099755188E+01   1.1393487696E+01   4.2523023204E-02
  9.5147217373E-02   3.7066161661E+00   1.1222982683E+01
  3.7963361440E+00   3.7030249293E+00   7.7924678577E+00
  7.7618427489E+00   3.7504643080E+00   1.1424711522E+01
  1.1301155961E+01   3.8912676307E+00   7.6991262943E+00
  2.8982176377E-01   1.1408607979E+01   1.1414432425E+01
  3.7181667005E+00   1.1215602612E+01   7.8651608433E+00
  7.7071413220E+00   1.1564720398E+01   1.1550133754E+01
  1.1489551803E+01   1.1416599349E+01   7.6960714288E+00
:V(Bohr/atu):
 -8.1840295684E-05   5.3557961387E-04   3.1333608552E-04
  9.8623441709E-05  -3.9100363917E-05   3.5053215788E-04
  4.1022447578E-04  -2.5475191415E-04  -2.8211133261E-04
 -1.9759200566E-04  -3.8052793102E-05  -2.7728583575E-04
  2.0731623812E-04   3.0909724632E-04  -3.2705944612E-05
 -1.4858209482E-04   3.1421157397E-04  -4.0801148635E-05
 -5.3306375174E-04  -3.6087280890E-04   2.1510299849E-04
  1.3363111298E-05   1.3428992892E-04   2.6110305485E-04
  1.7201825354E-04  -2.7633876987E-04   7.5658225996E-05
 -2.5242864574E-04   4.7435305692E-05  -3.8605263831E-04
  2.4589141501E-05   6.5441903308E-05  -2.5066329299E-04
  9.6958788229E-05  -2.6827972192E-04   3.2794059764E-04
  4.0372999156E-04   3.0838116161E-05   2.7513101855E-04
  5.1833675821E-04   2.6899509800E-04  -5.2592766889E-05
 -4.8716739345E-04   4.3745406914E-04  -1.9496767625E-04
  1.0922055901E-05  -5.7542911595E-04  -3.7638336700E-05
  1.3219007924E-04   1.1838047740E-04   1.3345063824E-04
 -1.7069219112E-04   3.9571065816E-05   4.1367746925E-05
  2.3830015544E-04  -2.8414687194E-04  -6.1367814997E-04
 -2.3051411764E-04  -2.5867934991E-05  -2.2242907240E-04
  8.1381846364E-05  -1.3200255304E-04   9.5658158189E-05
 -3.1928891154E-04   5.8179388201E-05   1.0057888078E-05
  2.4527861776E-04   2.4225219441E-04  -3.6569179023E-05
 -7.0619270538E-04  -4.8191619932E-06   1.3282060399E-04
  2.0353073073E-04  -1.7809740755E-04  -4.0292186923E-04
 -4.8996809038E-05  -1.9747293738E-04   4.3193028981E-04
  3.6532923875E-04  -9.1577812333E-05   1.5165910662E-05
 -2.1653611364E-04   1.7229506770E-04   2.0927191797E-04
  2.0823119781E-05   1.3336523194E-05  -5.0072734713E-05
 -2.5440306043E-04  -3.8232987308E-04  -4.7468675021E-04
  2.8502151312E-04   3.1246831316E-04   2.3008009146E-04
  1.2939553871E-04   2.2300203995E-05   2.4694133862E-04
:Pm_ion:
 -6.1071292699E+01   3.9966301550E+02   2.3381928953E+02
  7.3595299543E+01  -2.9177677689E+01   2.6157593683E+02
  3.0611984992E+02  -1.9010230333E+02  -2.1051859141E+02
 -1.4744813801E+02  -2.8395953926E+01  -2.0691768394E+02
  1.5470460552E+02   2.3065616081E+02  -2.4406000732E+01
 -1.1087570648E+02   2.3447260109E+02  -3.0446846140E+01
 -3.9778561572E+02  -2.6929239142E+02   1.6051528249E+02
  9.9718906760E+00   1.0021053183E+02   1.9484168470E+02
  1.2836435919E+02  -2.0621095950E+02   5.6458076382E+01
 -1.8836862185E+02   3.5397421453E+01  -2.8808221518E+02
  1.8349037540E+01   4.8834398731E+01  -1.8705127110E+02
  7.2353093133E+01  -2.0019709466E+02   2.4471754481E+02
  3.0127350200E+02   2.3012180034E+01   2.0530970501E+02
  3.8679596173E+02   2.0073092634E+02  -3.9246049072E+01
 -3.6353659563E+02   3.2643925924E+02  -1.4548979722E+02
  8.1503135739E+00  -4.2939971898E+02  -2.8086676106E+01
  1.0267778810E+02   9.1951269285E+01   1.0365691914E+02
 -1.3258405419E+02   3.0736569143E+01   3.2132129561E+01
  1.8509810270E+02  -2.2070924288E+02  -4.7667052932E+02
 -1.7905034826E+02  -2.0092751005E+01  -1.7277034172E+02
  6.3212822202E+01  -1.0253212833E+02   7.4301854971E+01
 -2.4800559459E+02   4.5190463064E+01   7.8123994380E+00
  1.9051857812E+02   1.8816782338E+02  -2.8404873014E+01
 -5.4853061119E+02  -3.7432528734E+00   1.0316754411E+02
  1.5809117720E+02  -1.3833600811E+02  -3.1296695293E+02
 -3.8057954158E+01  -1.5338582544E+02   3.3549905579E+02
  2.8376712063E+02  -7.1132472748E+01   1.1780022905E+01
 -1.6819302417E+02   1.3382907819E+02   1.6255060721E+02
  1.6174223457E+01   1.0359058035E+01  -3.8893672459E+01
 -1.9760592989E+02  -2.9697225327E+02  -3.6870985955E+02
  2.2138861475E+02   2.4270773896E+02   1.7871322123E+02
  1.0050714683E+02   1.7321539056E+01   1.9181008579E+02
:NPH_BMASS: 0.1
:NPH_INIT_Hamiltonian: -103.682126496114
:KE: 0.166864193206538
:Kbaro: 0.0169638070682247
:Ubaro: 0
:kinetic_stress: 
 0.000277129724646706 -9.32366189484997e-07 4.02759588124573e-06 
 -9.32366189484997e-07 0.000212585376793847 4.59478021839316e-05 
 4.02759588124573e-06 4.59478021839316e-05 0.000233457921300007
:Pm_metric_tensor: 
 0.519145325719798 0.000980646676623254 -0.00372936973493956 
 0.000980646676623254 0.502308511140885 0.000421349437850294 
 -0.00372936973493956 0.000421349437850294 0.516335053920347
:LATVEC_SCALE:   1.5208200323E+01   1.5208200323E+01   1.5208200323E+01
:LatVec: 
   1.0000000000E+00   0.0000000000E+00   0.0000000000E+00
   0.0000000000E+00   1.0000000000E+00   0.0000000000E+00
   0.0000000000E+00   0.0000000000E+00   1.0000000000E+00
:INITIAL_ANGLES:   9.0000000000E+01   9.0000000000E+01   9.0000000000E+01
:ROTATION_MATRIX: 
   1.0000000000E+00   0.0000000000E+00   0.0000000000E+00
   0.0000000000E+00   1.0000000000E+00   0.0000000000E+00
   0.0000000000E+00   0.0000000000E+00   1.0000000000E+00
:TTHRMI(K): 1120
:EXTERNAL_PRESSURE: 0
:EXTERNAL_STRESS: 0 0 0 0 0 0 GPa
:TEL(K):   1.1200000000E+03
:TIO(K):   1.1331515000E+03
