:MDSTEP: 3000
:R(Bohr):
  9.4520584401E+00   1.2898415170E+01   4.7723882766E+00
 -8.6640084533E-01   7.8125585316E+00   1.3780703162E+01
  1.9262494864E-01   1.8885982002E+01   1.8070851448E+00
  6.3039313197E+00  -7.8003122859E-01   1.2269405482E+01
  1.1374041320E+01  -4.5531615819E-01   6.8344729103E+00
  1.5308922590E+00   6.0417742102E+00   3.6128104567E+00
  6.4841663905E+00   1.6269847922E+01   2.1535680913E+00
  9.4387787513E+00   7.8491401156E+00   8.3036236117E+00
  7.7947117666E+00   2.5503308655E+00   8.8324429195E+00
  3.6142439565E+00   1.9283769258E+01   6.3544346464E+00
  8.6402598093E+00   5.5812293937E+00   3.3941621438E+00
  1.5853240768E+00   1.2866651650E+01   2.3643675348E+00
  1.4822946824E+00   1.2711845156E+01   1.2354461156E+01
  5.2100797614E+00   1.0105378828E+01   8.2040403298E+00
  5.2544605232E+00   9.6537540110E+00   1.3729559847E+01
  1.7573088468E+00   1.0983812194E+00   9.6561810114E+00
  2.0359211297E+00   1.5029451864E+01   6.3531438719E+00
  9.5749004137E+00   1.1241065349E+01   1.1453317526E+01
  6.8569380512E+00   7.9299493948E+00   5.7599241062E+00
  4.5747074199E+00   6.4734083336E+00   5.6740551465E+00
:V(Bohr/atu):
  6.4648752859E-04  -1.3968131964E-04  -1.1512106902E-04
  1.0732825046E-03   1.9488257912E-04  -6.9424401027E-04
  6.3592735570E-04   3.7231244026E-04   3.1942341304E-04
 -4.2456926259E-05  -2.6042920026E-04  -1.2665067662E-04
 -5.9675904992E-04  -1.0923751805E-03   6.8855017291E-04
  2.7355439955E-04  -6.3525305147E-04  -4.4614184159E-04
 -7.3721432895E-04  -2.6090309871E-04  -7.2295942104E-04
 -5.4606413505E-04  -2.0213334779E-04   2.0247873902E-04
  1.9195176168E-04   9.1706548668E-04  -2.5694770155E-04
 -5.9423168622E-04  -2.0697489111E-05   1.4022078940E-03
  1.2045333576E-04  -5.1306822357E-04  -5.2629597910E-04
  6.8647333511E-04  -6.5930737663E-04  -1.7044709802E-04
  3.1832293269E-04   3.5746545598E-04   8.2125126948E-04
 -2.0351284968E-05  -1.9605281348E-04   3.2668610751E-04
  1.5662890822E-04   8.6804677668E-04  -1.4955241785E-04
  3.2774136440E-04   1.3259156857E-04   3.9156595731E-04
  7.6486561920E-06   1.6139143196E-03   2.4511384183E-04
 -8.0536680806E-04   4.6468966620E-04  -6.3494303950E-04
 -8.8221194358E-04   1.5955872945E-04  -1.1169825151E-03
 -1.5799896105E-03  -2.2736446762E-03  -1.2750773514E-04
:Pm_ion:
  4.5634457349E+02  -1.8568727347E+02  -1.0966493989E+02
  7.5761580134E+02   1.2223683662E+02  -5.5051778423E+02
  4.4894427187E+02   3.3151899479E+02   1.6798826586E+02
 -2.9993643685E+01  -2.5976708422E+02  -7.3156390854E+01
 -4.2129413380E+02  -1.0605914415E+03   5.6166763781E+02
  1.9304080078E+02  -6.5976213939E+02  -2.9475308212E+02
 -5.2045528067E+02  -2.1211995974E+02  -4.4700456350E+02
 -3.8547330669E+02  -1.6607419465E+02   1.8049487679E+02
  1.3554751161E+02   9.1179123075E+02  -2.3168445586E+02
 -4.1940598116E+02   2.0289854817E+01   1.0057476575E+03
  8.4970059262E+01  -5.2590296506E+02  -3.4735353475E+02
  4.8453418160E+02  -7.1262968204E+02  -1.2594612918E+02
  2.2476847993E+02   3.3854492588E+02   5.3419455942E+02
 -1.4363320366E+01  -1.9635720345E+02   2.3660122189E+02
  1.1061482815E+02   8.6479090409E+02  -1.5301081286E+02
  2.3138181624E+02   1.1104968070E+02   2.4654653834E+02
  5.5163949457E+00   1.6275056384E+03   9.3889838938E+01
 -5.6851288203E+02   5.2454245565E+02  -4.1612184600E+02
 -2.7723461384E+02   9.8849637088E+01  -3.2558410242E+02
 -4.9654555696E+02  -9.7222821531E+02   4.7667045127E+01
:NPH_BMASS: 71.47
:NPH_INIT_Hamiltonian: -52.4926360099834
:KE: 0.546416967050208
:Kbaro: 0.100971936241643
:Ubaro: 0.0359081167887591
:kinetic_stress: 
 0.00081305822421707 0.00024848123651942 1.91389486021462e-05 
 0.00024848123651942 0.0005626465993491 4.66750321329091e-05 
 1.91389486021462e-05 4.66750321329091e-05 0.000765777238856388
:Pm_metric_tensor: 
 -45.9076624175933 -9.63198645940107 -15.145170591189 
 -9.63198645940107 4.6591787682126 -3.64694214323638 
 -15.145170591189 -3.64694214323638 -60.8352894091909
:LATVEC_SCALE:   1.4348064594E+01   2.0559505844E+01   1.4156183343E+01
:LatVec: 
   1.0000000000E+00   0.0000000000E+00   0.0000000000E+00
  -6.8576754872E-02   9.9764584332E-01   0.0000000000E+00
  -8.1025589618E-02  -6.7160158796E-02   9.9444676423E-01
:INITIAL_ANGLES:   9.0000000000E+01   9.0000000000E+01   9.0000000000E+01
:ROTATION_MATRIX: 
   1.0000000000E+00   0.0000000000E+00   0.0000000000E+00
   0.0000000000E+00   1.0000000000E+00   0.0000000000E+00
   0.0000000000E+00   0.0000000000E+00   1.0000000000E+00
:TTHRMI(K): 2400
:EXTERNAL_PRESSURE: 0.1
:EXTERNAL_STRESS: 0.3 0.01 0 0.2 0.4 0 GPa
:TEL(K):   2.3998901885E+03
:TIO(K):   6.0542046078E+03
