:RELAXSTEP: 34
:E(Ha): -8.852556417271909E+00
:R(Bohr):
   4.841548437640661    4.652305926581012    6.011315831652573
   0.841519796182821    4.652440987568728    2.011317498882705
   4.841563538634037    0.652332405194208    2.011357330370159
   0.841566861965374    0.652370219317326    6.011262162683066
:ISFD: 0
:ISRESET: 0
:STEP: 2
:DX:
   0.031188310435584
   0.090815574321851
  -0.026344616837530
   0.008246041927649
  -0.030073454553210
   0.091041248112606
   0.032804629917107
  -0.071811941964827
   0.027476118568011
  -0.072238982280340
   0.011069822196186
  -0.092172749843087
  -0.031130883223296
  -0.090598504206402
   0.026321762209070
  -0.008198794673922
   0.029970095084343
  -0.090846647082658
  -0.032743298899352
   0.071645280029673
  -0.027450400064289
   0.072072976796570
  -0.011016870907614
   0.091975284937877
   0.000536469593564
  -0.000282138510025
  -0.001785122752691
   0.000121295477081
   0.000903460236562
   0.000107391029584
  -0.000314655654124
  -0.000877435462134
   0.000307163152963
  -0.000343109416520
   0.000256113735597
   0.001370568570144
   0.000106475093109
  -0.000120868495080
  -0.000401846483580
   0.000118873597470
   0.000132629501771
  -0.000221651303709
  -0.000442080671514
  -0.000110436457585
  -0.000173949938989
   0.000216731980934
   0.000098675450894
   0.000797447726278
  -0.000026779405464
   0.000048332960161
   0.000197251743945
  -0.000079991039435
  -0.000102661803022
   0.000113463721092
   0.000203986504234
   0.000091567623241
   0.000079537167201
  -0.000097216059335
  -0.000037238780380
  -0.000390252632238
   0.000000000000000
   0.000000000000000
   0.000000000000000
   0.000000000000000
   0.000000000000000
   0.000000000000000
   0.000000000000000
   0.000000000000000
   0.000000000000000
   0.000000000000000
   0.000000000000000
   0.000000000000000
   0.000000000000000
   0.000000000000000
   0.000000000000000
   0.000000000000000
   0.000000000000000
   0.000000000000000
   0.000000000000000
   0.000000000000000
   0.000000000000000
   0.000000000000000
   0.000000000000000
   0.000000000000000
   0.000000000000000
   0.000000000000000
   0.000000000000000
   0.000000000000000
   0.000000000000000
   0.000000000000000
   0.000000000000000
   0.000000000000000
   0.000000000000000
   0.000000000000000
   0.000000000000000
   0.000000000000000
   0.000000000000000
   0.000000000000000
   0.000000000000000
   0.000000000000000
   0.000000000000000
   0.000000000000000
   0.000000000000000
   0.000000000000000
   0.000000000000000
   0.000000000000000
   0.000000000000000
   0.000000000000000
   0.000000000000000
   0.000000000000000
   0.000000000000000
   0.000000000000000
   0.000000000000000
   0.000000000000000
   0.000000000000000
   0.000000000000000
   0.000000000000000
   0.000000000000000
   0.000000000000000
   0.000000000000000
   0.000000000000000
   0.000000000000000
   0.000000000000000
   0.000000000000000
   0.000000000000000
   0.000000000000000
   0.000000000000000
   0.000000000000000
   0.000000000000000
   0.000000000000000
   0.000000000000000
   0.000000000000000
   0.000000000000000
   0.000000000000000
   0.000000000000000
   0.000000000000000
   0.000000000000000
   0.000000000000000
   0.000000000000000
   0.000000000000000
   0.000000000000000
   0.000000000000000
   0.000000000000000
   0.000000000000000
   0.000000000000000
   0.000000000000000
   0.000000000000000
   0.000000000000000
   0.000000000000000
   0.000000000000000
   0.000000000000000
   0.000000000000000
   0.000000000000000
   0.000000000000000
   0.000000000000000
   0.000000000000000
   0.000000000000000
   0.000000000000000
   0.000000000000000
   0.000000000000000
   0.000000000000000
   0.000000000000000
   0.000000000000000
   0.000000000000000
   0.000000000000000
   0.000000000000000
   0.000000000000000
   0.000000000000000
   0.000000000000000
   0.000000000000000
   0.000000000000000
   0.000000000000000
   0.000000000000000
   0.000000000000000
   0.000000000000000
   0.000000000000000
   0.000000000000000
   0.000000000000000
   0.000000000000000
   0.000000000000000
   0.000000000000000
   0.000000000000000
   0.000000000000000
   0.000000000000000
   0.000000000000000
   0.000000000000000
   0.000000000000000
   0.000000000000000
   0.000000000000000
   0.000000000000000
   0.000000000000000
   0.000000000000000
   0.000000000000000
   0.000000000000000
   0.000000000000000
   0.000000000000000
   0.000000000000000
   0.000000000000000
   0.000000000000000
   0.000000000000000
   0.000000000000000
   0.000000000000000
   0.000000000000000
   0.000000000000000
   0.000000000000000
   0.000000000000000
   0.000000000000000
   0.000000000000000
   0.000000000000000
   0.000000000000000
   0.000000000000000
   0.000000000000000
   0.000000000000000
   0.000000000000000
   0.000000000000000
   0.000000000000000
   0.000000000000000
   0.000000000000000
   0.000000000000000
   0.000000000000000
   0.000000000000000
   0.000000000000000
   0.000000000000000
   0.000000000000000
   0.000000000000000
   0.000000000000000
   0.000000000000000
   0.000000000000000
   0.000000000000000
   0.000000000000000
   0.000000000000000
   0.000000000000000
   0.000000000000000
   0.000000000000000
   0.000000000000000
   0.000000000000000
   0.000000000000000
   0.000000000000000
   0.000000000000000
   0.000000000000000
:DG:
   0.002521802181979
   0.004491149150655
  -0.003597802884615
  -0.001167604584013
   0.000313549935900
   0.005818617689389
   0.002599421868210
  -0.003836550166315
   0.003644644645101
  -0.003953619466175
  -0.000968148920239
  -0.005865459449874
  -0.002518052356619
  -0.004481459393918
   0.003594536296634
   0.001168299398316
  -0.000315599779733
  -0.005807990558093
  -0.002595978399432
   0.003828369743708
  -0.003641169545993
   0.003945731357735
   0.000968689429942
   0.005854623807452
   0.000028049758962
   0.000005069608685
  -0.000071057382377
  -0.000004754736577
   0.000042505138756
   0.000020844249624
   0.000009698087838
  -0.000040731198806
   0.000035570263878
  -0.000032993110224
  -0.000006843548635
   0.000014642868874
  -0.000006190648490
   0.000001426901762
   0.000000506038649
   0.000015332402140
   0.000001916224368
  -0.000031025932987
  -0.000042568961960
   0.000000906626395
  -0.000024924363495
   0.000033427208311
  -0.000004249752526
   0.000055444257834
   0.000004938242714
  -0.000004858037611
  -0.000000912195248
  -0.000009863758611
  -0.000004478292042
   0.000014437170106
   0.000019471963433
   0.000004276582320
   0.000011022583851
  -0.000014546447537
   0.000005059747333
  -0.000024547558709
   0.000000000000000
   0.000000000000000
   0.000000000000000
   0.000000000000000
   0.000000000000000
   0.000000000000000
   0.000000000000000
   0.000000000000000
   0.000000000000000
   0.000000000000000
   0.000000000000000
   0.000000000000000
   0.000000000000000
   0.000000000000000
   0.000000000000000
   0.000000000000000
   0.000000000000000
   0.000000000000000
   0.000000000000000
   0.000000000000000
   0.000000000000000
   0.000000000000000
   0.000000000000000
   0.000000000000000
   0.000000000000000
   0.000000000000000
   0.000000000000000
   0.000000000000000
   0.000000000000000
   0.000000000000000
   0.000000000000000
   0.000000000000000
   0.000000000000000
   0.000000000000000
   0.000000000000000
   0.000000000000000
   0.000000000000000
   0.000000000000000
   0.000000000000000
   0.000000000000000
   0.000000000000000
   0.000000000000000
   0.000000000000000
   0.000000000000000
   0.000000000000000
   0.000000000000000
   0.000000000000000
   0.000000000000000
   0.000000000000000
   0.000000000000000
   0.000000000000000
   0.000000000000000
   0.000000000000000
   0.000000000000000
   0.000000000000000
   0.000000000000000
   0.000000000000000
   0.000000000000000
   0.000000000000000
   0.000000000000000
   0.000000000000000
   0.000000000000000
   0.000000000000000
   0.000000000000000
   0.000000000000000
   0.000000000000000
   0.000000000000000
   0.000000000000000
   0.000000000000000
   0.000000000000000
   0.000000000000000
   0.000000000000000
   0.000000000000000
   0.000000000000000
   0.000000000000000
   0.000000000000000
   0.000000000000000
   0.000000000000000
   0.000000000000000
   0.000000000000000
   0.000000000000000
   0.000000000000000
   0.000000000000000
   0.000000000000000
   0.000000000000000
   0.000000000000000
   0.000000000000000
   0.000000000000000
   0.000000000000000
   0.000000000000000
   0.000000000000000
   0.000000000000000
   0.000000000000000
   0.000000000000000
   0.000000000000000
   0.000000000000000
   0.000000000000000
   0.000000000000000
   0.000000000000000
   0.000000000000000
   0.000000000000000
   0.000000000000000
   0.000000000000000
   0.000000000000000
   0.000000000000000
   0.000000000000000
   0.000000000000000
   0.000000000000000
   0.000000000000000
   0.000000000000000
   0.000000000000000
   0.000000000000000
   0.000000000000000
   0.000000000000000
   0.000000000000000
   0.000000000000000
   0.000000000000000
   0.000000000000000
   0.000000000000000
   0.000000000000000
   0.000000000000000
   0.000000000000000
   0.000000000000000
   0.000000000000000
   0.000000000000000
   0.000000000000000
   0.000000000000000
   0.000000000000000
   0.000000000000000
   0.000000000000000
   0.000000000000000
   0.000000000000000
   0.000000000000000
   0.000000000000000
   0.000000000000000
   0.000000000000000
   0.000000000000000
   0.000000000000000
   0.000000000000000
   0.000000000000000
   0.000000000000000
   0.000000000000000
   0.000000000000000
   0.000000000000000
   0.000000000000000
   0.000000000000000
   0.000000000000000
   0.000000000000000
   0.000000000000000
   0.000000000000000
   0.000000000000000
   0.000000000000000
   0.000000000000000
   0.000000000000000
   0.000000000000000
   0.000000000000000
   0.000000000000000
   0.000000000000000
   0.000000000000000
   0.000000000000000
   0.000000000000000
   0.000000000000000
   0.000000000000000
   0.000000000000000
   0.000000000000000
   0.000000000000000
   0.000000000000000
   0.000000000000000
   0.000000000000000
   0.000000000000000
   0.000000000000000
   0.000000000000000
   0.000000000000000
   0.000000000000000
   0.000000000000000
   0.000000000000000
   0.000000000000000
   0.000000000000000
   0.000000000000000
   0.000000000000000
:IYS:
 422.221703334210360
 423.900716381293762
3940467.241137956734747
12193275.807800179347396
54390166.321211904287338
   0.000000000000000
   0.000000000000000
   0.000000000000000
   0.000000000000000
   0.000000000000000
   0.000000000000000
   0.000000000000000
   0.000000000000000
   0.000000000000000
   0.000000000000000
   0.000000000000000
   0.000000000000000
   0.000000000000000
   0.000000000000000
   0.000000000000000
:FOLD:
   0.000000072709369
   0.000001440877850
   0.000000037711156
   0.000000315845820
  -0.000001636050750
   0.000000531162559
   0.000000577167012
  -0.000000621068667
  -0.000000107541968
  -0.000000965722202
   0.000000816241567
  -0.000000461331747
:RDISP:
   0.000003469061931
   0.000024683114241
   0.000000072206679
   0.000006127537080
  -0.000020611338053
   0.000015094581994
   0.000007952457688
  -0.000014723260577
  -0.000000492016813
  -0.000017549056699
   0.000010651484390
  -0.000014674771860
