:RELAXSTEP: 43
:E(Ha): -8.852556545053403E+00
:R(Bohr):
   4.841564919937581    4.652364083323395    6.011309014619333
   0.841538699645489    4.652353952576412    2.011309361703376
   4.841560946395989    0.652370669810106    2.011297239606279
   0.841534068443835    0.652360832951364    6.011337207659506
:ISFD: 0
:ISRESET: 0
:STEP: 6
:DX:
  -0.014330986384613
   0.001652838139432
  -0.130277856266086
  -0.012439127227572
  -0.008440390182240
   0.004640161509654
   0.027846437443816
   0.009644342061382
  -0.020253096274345
  -0.001076323831630
  -0.002856790018574
   0.145890791030777
   0.014311910064794
  -0.001648829104032
   0.130139680324115
   0.012430612663857
   0.008433982698936
  -0.004630955661058
  -0.027821951424711
  -0.009636818126057
   0.020237445030562
   0.001079428696059
   0.002851664531154
  -0.145746169693618
  -0.000000800515997
   0.000000112254813
  -0.000040957466561
  -0.000007261706541
  -0.000004653782926
   0.000002969806893
   0.000012612128867
   0.000003957672419
  -0.000009736450464
  -0.000004549906328
   0.000000583855696
   0.000047724110130
  -0.002995127222077
   0.000375411869793
  -0.040345002514422
  -0.005214615952255
  -0.003338414589212
   0.003875272716051
   0.010388458735332
   0.002709115460358
  -0.007334566274715
  -0.002178715560691
   0.000253887259577
   0.043804296072674
   0.002989573635576
  -0.000374723142114
   0.040298072752997
   0.005210414048400
   0.003335268767400
  -0.003868735702520
  -0.010378176848585
  -0.002707189621986
   0.007326737856032
   0.002178189164300
  -0.000253356003816
  -0.043756074906097
  -0.000004131186648
  -0.000001104853058
  -0.000049544378921
  -0.000006791916031
  -0.000003246124453
   0.000005953025747
   0.000012209052112
   0.000002477295397
  -0.000006256271265
  -0.000001285949433
   0.000001873682114
   0.000049847624438
   0.000000000000000
   0.000000000000000
   0.000000000000000
   0.000000000000000
   0.000000000000000
   0.000000000000000
   0.000000000000000
   0.000000000000000
   0.000000000000000
   0.000000000000000
   0.000000000000000
   0.000000000000000
   0.000000000000000
   0.000000000000000
   0.000000000000000
   0.000000000000000
   0.000000000000000
   0.000000000000000
   0.000000000000000
   0.000000000000000
   0.000000000000000
   0.000000000000000
   0.000000000000000
   0.000000000000000
   0.000000000000000
   0.000000000000000
   0.000000000000000
   0.000000000000000
   0.000000000000000
   0.000000000000000
   0.000000000000000
   0.000000000000000
   0.000000000000000
   0.000000000000000
   0.000000000000000
   0.000000000000000
   0.000000000000000
   0.000000000000000
   0.000000000000000
   0.000000000000000
   0.000000000000000
   0.000000000000000
   0.000000000000000
   0.000000000000000
   0.000000000000000
   0.000000000000000
   0.000000000000000
   0.000000000000000
   0.000000000000000
   0.000000000000000
   0.000000000000000
   0.000000000000000
   0.000000000000000
   0.000000000000000
   0.000000000000000
   0.000000000000000
   0.000000000000000
   0.000000000000000
   0.000000000000000
   0.000000000000000
   0.000000000000000
   0.000000000000000
   0.000000000000000
   0.000000000000000
   0.000000000000000
   0.000000000000000
   0.000000000000000
   0.000000000000000
   0.000000000000000
   0.000000000000000
   0.000000000000000
   0.000000000000000
   0.000000000000000
   0.000000000000000
   0.000000000000000
   0.000000000000000
   0.000000000000000
   0.000000000000000
   0.000000000000000
   0.000000000000000
   0.000000000000000
   0.000000000000000
   0.000000000000000
   0.000000000000000
   0.000000000000000
   0.000000000000000
   0.000000000000000
   0.000000000000000
   0.000000000000000
   0.000000000000000
   0.000000000000000
   0.000000000000000
   0.000000000000000
   0.000000000000000
   0.000000000000000
   0.000000000000000
   0.000000000000000
   0.000000000000000
   0.000000000000000
   0.000000000000000
   0.000000000000000
   0.000000000000000
   0.000000000000000
   0.000000000000000
   0.000000000000000
   0.000000000000000
   0.000000000000000
   0.000000000000000
   0.000000000000000
   0.000000000000000
   0.000000000000000
   0.000000000000000
   0.000000000000000
   0.000000000000000
   0.000000000000000
   0.000000000000000
   0.000000000000000
   0.000000000000000
   0.000000000000000
   0.000000000000000
   0.000000000000000
   0.000000000000000
   0.000000000000000
   0.000000000000000
   0.000000000000000
   0.000000000000000
   0.000000000000000
   0.000000000000000
   0.000000000000000
   0.000000000000000
   0.000000000000000
   0.000000000000000
   0.000000000000000
   0.000000000000000
   0.000000000000000
   0.000000000000000
   0.000000000000000
   0.000000000000000
   0.000000000000000
   0.000000000000000
   0.000000000000000
   0.000000000000000
   0.000000000000000
   0.000000000000000
   0.000000000000000
   0.000000000000000
   0.000000000000000
   0.000000000000000
   0.000000000000000
   0.000000000000000
   0.000000000000000
   0.000000000000000
   0.000000000000000
   0.000000000000000
   0.000000000000000
   0.000000000000000
   0.000000000000000
   0.000000000000000
   0.000000000000000
   0.000000000000000
   0.000000000000000
   0.000000000000000
   0.000000000000000
   0.000000000000000
   0.000000000000000
   0.000000000000000
   0.000000000000000
   0.000000000000000
:DG:
  -0.000191605982459
  -0.000105630820156
  -0.004230173200340
  -0.000734272294217
  -0.000453741156857
  -0.000151858461204
   0.001260674453413
   0.000504166341590
  -0.001069269503379
  -0.000334796176737
   0.000055205635422
   0.005451301164923
   0.000190879866795
   0.000105755383848
   0.004226793252110
   0.000734297413547
   0.000453724013228
   0.000151971300351
  -0.001260344550227
  -0.000504045196311
   0.001069120063691
   0.000335167269886
  -0.000055434200765
  -0.005447884616153
   0.000001049193930
  -0.000000124833903
   0.000000898094883
  -0.000000746234678
  -0.000000479974449
  -0.000000502418280
   0.000000674436547
   0.000000467163275
  -0.000000839293482
  -0.000000977395799
   0.000000137645076
   0.000000443616880
   0.000054333717709
  -0.000042789486162
  -0.001295440550127
  -0.000332866084354
  -0.000169319522875
   0.000042834641299
   0.000512447012812
   0.000150045398086
  -0.000325046185760
  -0.000233914646167
   0.000062063610950
   0.001577652094587
  -0.000054696803665
   0.000042948670199
   0.001295342158289
   0.000333225925731
   0.000169438693346
  -0.000042663067698
  -0.000512735347693
  -0.000150194239948
   0.000325128373286
   0.000234206225627
  -0.000062193123597
  -0.001577807463877
  -0.000000217287160
  -0.000000039529809
  -0.000000979659717
  -0.000000009066685
   0.000000016784236
   0.000000220547820
   0.000000130808501
  -0.000000013979115
   0.000000125347304
   0.000000095545344
   0.000000036724688
   0.000000633764594
   0.000000000000000
   0.000000000000000
   0.000000000000000
   0.000000000000000
   0.000000000000000
   0.000000000000000
   0.000000000000000
   0.000000000000000
   0.000000000000000
   0.000000000000000
   0.000000000000000
   0.000000000000000
   0.000000000000000
   0.000000000000000
   0.000000000000000
   0.000000000000000
   0.000000000000000
   0.000000000000000
   0.000000000000000
   0.000000000000000
   0.000000000000000
   0.000000000000000
   0.000000000000000
   0.000000000000000
   0.000000000000000
   0.000000000000000
   0.000000000000000
   0.000000000000000
   0.000000000000000
   0.000000000000000
   0.000000000000000
   0.000000000000000
   0.000000000000000
   0.000000000000000
   0.000000000000000
   0.000000000000000
   0.000000000000000
   0.000000000000000
   0.000000000000000
   0.000000000000000
   0.000000000000000
   0.000000000000000
   0.000000000000000
   0.000000000000000
   0.000000000000000
   0.000000000000000
   0.000000000000000
   0.000000000000000
   0.000000000000000
   0.000000000000000
   0.000000000000000
   0.000000000000000
   0.000000000000000
   0.000000000000000
   0.000000000000000
   0.000000000000000
   0.000000000000000
   0.000000000000000
   0.000000000000000
   0.000000000000000
   0.000000000000000
   0.000000000000000
   0.000000000000000
   0.000000000000000
   0.000000000000000
   0.000000000000000
   0.000000000000000
   0.000000000000000
   0.000000000000000
   0.000000000000000
   0.000000000000000
   0.000000000000000
   0.000000000000000
   0.000000000000000
   0.000000000000000
   0.000000000000000
   0.000000000000000
   0.000000000000000
   0.000000000000000
   0.000000000000000
   0.000000000000000
   0.000000000000000
   0.000000000000000
   0.000000000000000
   0.000000000000000
   0.000000000000000
   0.000000000000000
   0.000000000000000
   0.000000000000000
   0.000000000000000
   0.000000000000000
   0.000000000000000
   0.000000000000000
   0.000000000000000
   0.000000000000000
   0.000000000000000
   0.000000000000000
   0.000000000000000
   0.000000000000000
   0.000000000000000
   0.000000000000000
   0.000000000000000
   0.000000000000000
   0.000000000000000
   0.000000000000000
   0.000000000000000
   0.000000000000000
   0.000000000000000
   0.000000000000000
   0.000000000000000
   0.000000000000000
   0.000000000000000
   0.000000000000000
   0.000000000000000
   0.000000000000000
   0.000000000000000
   0.000000000000000
   0.000000000000000
   0.000000000000000
   0.000000000000000
   0.000000000000000
   0.000000000000000
   0.000000000000000
   0.000000000000000
   0.000000000000000
   0.000000000000000
   0.000000000000000
   0.000000000000000
   0.000000000000000
   0.000000000000000
   0.000000000000000
   0.000000000000000
   0.000000000000000
   0.000000000000000
   0.000000000000000
   0.000000000000000
   0.000000000000000
   0.000000000000000
   0.000000000000000
   0.000000000000000
   0.000000000000000
   0.000000000000000
   0.000000000000000
   0.000000000000000
   0.000000000000000
   0.000000000000000
   0.000000000000000
   0.000000000000000
   0.000000000000000
   0.000000000000000
   0.000000000000000
   0.000000000000000
   0.000000000000000
   0.000000000000000
   0.000000000000000
   0.000000000000000
   0.000000000000000
   0.000000000000000
   0.000000000000000
   0.000000000000000
   0.000000000000000
   0.000000000000000
   0.000000000000000
   0.000000000000000
   0.000000000000000
   0.000000000000000
   0.000000000000000
   0.000000000000000
:IYS:
 702.716510988527716
 703.901844361738426
78441878808.745300292968750
7558.567361557509685
7566.519765636485317
12031696592.347478866577148
   0.000000000000000
   0.000000000000000
   0.000000000000000
   0.000000000000000
   0.000000000000000
   0.000000000000000
   0.000000000000000
   0.000000000000000
   0.000000000000000
   0.000000000000000
   0.000000000000000
   0.000000000000000
   0.000000000000000
   0.000000000000000
:FOLD:
  -0.000000256453387
  -0.000000060131803
  -0.000001110396035
  -0.000000075586759
   0.000000058585762
   0.000000163801796
   0.000000151447185
  -0.000000079749775
   0.000000055149745
   0.000000180592961
   0.000000081295816
   0.000000891444494
:RDISP:
  -0.000006049392521
  -0.000001569166470
  -0.000059758297353
  -0.000009597224531
  -0.000002275387308
   0.000004615869396
   0.000014087033484
   0.000000547485534
  -0.000009957206465
   0.000001559583570
   0.000003297068244
   0.000065099634420
