:MDSTEP: 30
:R(Bohr):
  3.6165687850E-01   4.0722091324E-01   2.3658766439E-01
  3.9136334450E+00   1.5380337737E+01   4.1216151968E+00
  8.0240365620E+00   1.5218686999E+01   1.0470526328E-01
  1.1403045440E+01   1.5384191868E+01   3.6354751041E+00
  1.5531094269E-01   7.9474008668E+00   1.5389482286E+01
  3.7440014434E+00   7.9450659525E+00   3.8201831909E+00
  7.2945737517E+00   7.4317295260E+00   1.5708614034E-01
  1.1572450383E+01   7.8107499442E+00   4.0546124257E+00
  5.6660762253E-01   1.5202278661E+01   7.7681499562E+00
  3.6496842037E+00   3.2979086086E-02   1.1258089018E+01
  7.7219580989E+00   5.1237419938E-02   7.8301245535E+00
  1.1628223688E+01   1.5207149371E+01   1.1803872331E+01
  3.0117749318E-01   7.7277493952E+00   7.9132501253E+00
  4.2533319536E+00   7.9165372792E+00   1.1523279391E+01
  7.3353858896E+00   8.0419061762E+00   7.5545519569E+00
  1.1573909359E+01   7.2769747577E+00   1.1529636028E+01
  9.7002016830E-02   3.9474171768E+00   3.9537446769E+00
  3.7279053563E+00   3.8826626106E+00   1.2723076966E-02
  7.8767217799E+00   3.6381510355E+00   3.4107081758E+00
  1.1403300356E+01   3.8253359701E+00   1.5247251425E+01
  3.4196463035E-01   1.1461888901E+01   3.9340655201E+00
  3.6203313751E+00   1.1607056537E+01   4.9950158389E-01
  7.8753432552E+00   1.1744148642E+01   3.8569809902E+00
  1.1063280982E+01   1.1548183383E+01   7.9678124859E-02
  1.4793118417E-01   3.7155679097E+00   1.1268167004E+01
  3.8284969524E+00   3.7042330427E+00   8.0093553575E+00
  7.9648829488E+00   3.7801282472E+00   1.1579763320E+01
  1.1399519674E+01   3.9841050115E+00   7.8609407440E+00
  3.0555477395E-01   1.1568655424E+01   1.1547184393E+01
  3.6898913550E+00   1.1275311106E+01   7.8543597123E+00
  7.8926952627E+00   1.1797400794E+01   1.1756287638E+01
  1.1673256538E+01   1.1575579599E+01   7.8677158933E+00
:V(Bohr/atu):
 -8.9738939221E-05   4.9519552284E-04   2.9810546880E-04
  1.4883782053E-04  -3.6057820881E-05   3.1262946202E-04
  3.2130217087E-04  -2.2729475686E-04  -3.0636892322E-04
 -1.4849897309E-04  -4.3136380690E-05  -2.2598887347E-04
  1.9331282237E-04   2.6930434169E-04  -3.3792369646E-05
 -1.6109878025E-04   3.1162587558E-04  -3.5080457689E-05
 -4.6718318929E-04  -3.2916708329E-04   2.0984139096E-04
  1.4559484323E-05   1.3536294539E-04   2.4883238687E-04
  5.6746855303E-05  -2.6854860616E-04   3.1647480269E-05
 -1.7815062789E-04   3.0845855345E-05  -2.9643839945E-04
  3.1314304402E-05   6.4753127007E-05  -2.3267778683E-04
  1.2750993796E-04  -2.5855333960E-04   3.1045463217E-04
  3.7558010469E-04   4.1721942343E-05   2.6964496291E-04
  4.7348913687E-04   2.3499600787E-04  -4.2215234986E-05
 -4.2772310539E-04   3.9593237563E-04  -1.9446489414E-04
  2.9678169870E-06  -5.6307381472E-04  -2.4012406120E-05
  1.7279345236E-04   1.0491902089E-04   1.1805110802E-04
 -1.9138515494E-04   4.1663299899E-05   9.3096418292E-05
  2.4004830130E-04  -2.9307454089E-04  -6.6269888042E-04
 -3.0544881836E-04   2.6034867121E-05  -2.0966996489E-04
  1.7768421445E-04  -1.4260889385E-04   1.0070700337E-04
 -3.1094564629E-04   5.6984428493E-05   8.3449935576E-05
  2.5488801676E-04   2.2750601299E-04  -1.1326395844E-04
 -7.8187191983E-04   8.1850809638E-06   1.5732334177E-04
  2.0902759987E-04  -1.5525221840E-04  -4.4874790639E-04
 -9.8660222771E-05  -1.9544467035E-04   4.6123377289E-04
  4.2161410838E-04  -8.0061100829E-05  -4.9133209349E-06
 -2.2008914093E-04   1.5361262447E-04   2.5487988776E-04
  6.8172728694E-05   3.5633108530E-05  -1.1258997857E-04
 -3.6714073431E-04  -3.5596845542E-04  -4.7036124502E-04
  3.6140070235E-04   3.0701261609E-04   1.8258632909E-04
  1.0742077462E-04   1.6928619761E-05   2.9219971343E-04
:Pm_ion:
 -6.8937516957E+01   3.8040955296E+02   2.2900483323E+02
  1.1433731962E+02  -2.7699643655E+01   2.4016217515E+02
  2.4682455626E+02  -1.7460799393E+02  -2.3535282479E+02
 -1.1407701678E+02  -3.3137398337E+01  -1.7360481338E+02
  1.4850304768E+02   2.0687978689E+02  -2.5959322404E+01
 -1.2375619761E+02   2.3939121933E+02  -2.6948832555E+01
 -3.5889045840E+02  -2.5286638758E+02   1.6120030583E+02
  1.1184606216E+01   1.0398591096E+02   1.9115321663E+02
  4.3592974618E+01  -2.0629923032E+02   2.4311616859E+01
 -1.3685543909E+02   2.3695808022E+01  -2.2772418936E+02
  2.4055670921E+01   4.9743398237E+01  -1.7874324139E+02
  9.7953225060E+01  -1.9862085943E+02   2.3849146931E+02
  2.8852090364E+02   3.2050825792E+01   2.0714145235E+02
  3.6373469182E+02   1.8052410044E+02  -3.2429773552E+01
 -3.2857719388E+02   3.0415553265E+02  -1.4938807003E+02
  2.2798791209E+00  -4.3255370508E+02  -1.8446347465E+01
  1.3816871079E+02   8.3895110928E+01   9.4395760829E+01
 -1.5303496609E+02   3.3314713929E+01   7.4441548096E+01
  1.9194688146E+02  -2.3434760361E+02  -5.2990578462E+02
 -2.4424229546E+02   2.0817941748E+01  -1.6765582460E+02
  1.4207945095E+02  -1.1403260217E+02   8.0527106981E+01
 -2.4863765661E+02   4.5565760232E+01   6.6728049336E+01
  2.0381298128E+02   1.8191784517E+02  -9.0567871083E+01
 -6.2519866170E+02   6.5449359859E+00   1.2579853584E+02
  1.6714217813E+02  -1.2414242884E+02  -3.5882678915E+02
 -7.8890464890E+01  -1.5628102665E+02   3.6881070957E+02
  3.3713012276E+02  -6.4018276936E+01  -3.9287786082E+00
 -1.7598718265E+02   1.2283138044E+02   2.0380648119E+02
  5.4512123614E+01   2.8492865903E+01  -9.0028944814E+01
 -2.9357224620E+02  -2.8463869375E+02  -3.7610919825E+02
  2.8898241479E+02   2.4549273588E+02   1.4599926880E+02
  8.5895557606E+01   1.3536424765E+01   2.3364807605E+02
:NPT_NP_QMASS: 500
:NPT_NP_BMASS: 0.1
:NPT_NP_SNOSE[0]: 1.01616992569091
:NPT_NP_SNOSE[1]: 3.40313906300945e-05
:NPT_NP_SNOSE[2]: 1.01531249520867
:NPT_NP_INIT_Hamiltonian: -103.681526754895
:KE: 0.164494549452793
:Kbaro: 0.0245973275344546
:Ubaro: 0
:kinetic_stress: 
 0.000277999090172587 5.72231856710031e-06 -8.71923684766997e-06 
 5.72231856710031e-06 0.000184340695580417 4.31208153565756e-05 
 -8.71923684766997e-06 4.31208153565756e-05 0.000231999283425811
:Pm_metric_tensor: 
 0.631428164708427 0.00135150667540575 -0.00480237474048158 
 0.00135150667540575 0.619539067796634 0.000420514462701743 
 -0.00480237474048158 0.000420514462701743 0.626672390983213
:LATVEC_SCALE:   1.5413396589E+01   1.5413396589E+01   1.5413396589E+01
:LatVec: 
   1.0000000000E+00   0.0000000000E+00   0.0000000000E+00
   6.1232339957E-17   1.0000000000E+00   0.0000000000E+00
   6.1232339957E-17   6.1232339957E-17   1.0000000000E+00
:INITIAL_ANGLES:   9.0000000000E+01   9.0000000000E+01   9.0000000000E+01
:ROTATION_MATRIX: 
   1.0000000000E+00   0.0000000000E+00   0.0000000000E+00
   0.0000000000E+00   1.0000000000E+00   0.0000000000E+00
   0.0000000000E+00   0.0000000000E+00   1.0000000000E+00
:TTHRMI(K): 1120
:EXTERNAL_PRESSURE: 0
:EXTERNAL_STRESS: 0 0 0 0 0 0 GPa
:TEL(K):   1.1200000000E+03
:TIO(K):   1.1170595792E+03
