:MDSTEP: 20
:R(Bohr):
  3.7823458916E-01   2.7610460926E-01   1.5878927437E-01
  3.8306033205E+00   1.5184573827E+01   3.9859739488E+00
  7.8281895558E+00   1.5074962428E+01   1.7561114565E-01
  1.1293120965E+01   1.5189314181E+01   3.6481833123E+00
  1.0435468268E-01   7.7713558143E+00   1.5192718538E+01
  3.7321459897E+00   7.7627920119E+00   3.7783484433E+00
  7.3190025969E+00   7.4168484355E+00   1.0284005934E-01
  1.1415067004E+01   7.6738853814E+00   3.9386418353E+00
  5.3229704039E-01   1.5066232122E+01   7.6519055296E+00
  3.6530720897E+00   2.2840542397E-02   1.1191061767E+01
  7.6121710804E+00   3.4847066886E-02   7.7850414043E+00
  1.1445811536E+01   1.5068855172E+01   1.1568537402E+01
  2.0175776191E-01   7.6157878874E+00   7.7412657720E+00
  4.0760847909E+00   7.7499371772E+00   1.1381601394E+01
  7.3492754612E+00   7.8332359584E+00   7.5012957501E+00
  1.1418435117E+01   7.3193800096E+00   1.1383498648E+01
  5.8236045647E-02   3.8678818278E+00   3.8703400677E+00
  3.7226155939E+00   3.8210906346E+00   1.5203447282E+01
  7.7130823852E+00   3.6601846015E+00   3.5222899517E+00
  1.1317786229E+01   3.7738445375E+00   1.5096979981E+01
  3.0428421164E-01   1.1342899268E+01   3.8577699134E+00
  3.6493300723E+00   1.1438546793E+01   4.8043339327E-01
  7.7087007769E+00   1.1530410366E+01   3.8252851649E+00
  1.1099726003E+01   1.1393437716E+01   4.2518679669E-02
  9.5144068216E-02   3.7066129992E+00   1.1222956160E+01
  3.7963159924E+00   3.7030104254E+00   7.7924390927E+00
  7.7618077996E+00   3.7504561440E+00   1.1424674305E+01
  1.1301118907E+01   3.8912491122E+00   7.6990941122E+00
  2.8980766672E-01   1.1408578417E+01   1.1414388909E+01
  3.7181576669E+00   1.1215586629E+01   7.8651423642E+00
  7.7071115916E+00   1.1564668770E+01   1.1550084397E+01
  1.1489511031E+01   1.1416565408E+01   7.6960563643E+00
:V(Bohr/atu):
 -8.1778023086E-05   5.3559952164E-04   3.1337523565E-04
  9.8474247471E-05  -3.9092155991E-05   3.5055599313E-04
  4.1017819235E-04  -2.5470800261E-04  -2.8216002883E-04
 -1.9751070468E-04  -3.8062432505E-05  -2.7725398738E-04
  2.0727712557E-04   3.0905000069E-04  -3.2721376966E-05
 -1.4857054711E-04   3.1420219970E-04  -4.0814012455E-05
 -5.3309707411E-04  -3.6085142672E-04   2.1504594259E-04
  1.3435491358E-05   1.3424435214E-04   2.6105244271E-04
  1.7206218705E-04  -2.7631284727E-04   7.5543155711E-05
 -2.5238382734E-04   4.7416841562E-05  -3.8601697276E-04
  2.4628122118E-05   6.5406442068E-05  -2.5061381322E-04
  9.6962504848E-05  -2.6827093178E-04   3.2792498328E-04
  4.0375062409E-04   3.0841797734E-05   2.7511524597E-04
  5.1843831823E-04   2.6893794107E-04  -5.2492535478E-05
 -4.8719968061E-04   4.3746304758E-04  -1.9489295385E-04
  1.0870761229E-05  -5.7538514507E-04  -3.7588206752E-05
  1.3215069613E-04   1.1835677014E-04   1.3342591435E-04
 -1.7068148402E-04   3.9552959042E-05   4.1382429227E-05
  2.3831707436E-04  -2.8412077111E-04  -6.1370302211E-04
 -2.3045121903E-04  -2.5824850976E-05  -2.2237576658E-04
  8.1358082286E-05  -1.3194229631E-04   9.5638146684E-05
 -3.1927857785E-04   5.8193443871E-05   1.0080123268E-05
  2.4523672380E-04   2.4221824291E-04  -3.6574808048E-05
 -7.0617259286E-04  -4.8592063356E-06   1.3279896936E-04
  2.0351515122E-04  -1.7806773630E-04  -4.0289516309E-04
 -4.9039917024E-05  -1.9748123884E-04   4.3192612914E-04
  3.6529455572E-04  -9.1571810080E-05   1.5168370725E-05
 -2.1653212277E-04   1.7225871185E-04   2.0923472768E-04
  2.0794793994E-05   1.3342609930E-05  -5.0100417993E-05
 -2.5438583406E-04  -3.8228623268E-04  -4.7467259813E-04
  2.8500067023E-04   3.1242420638E-04   2.3002281645E-04
  1.2937637624E-04   2.2312545903E-05   2.4695993759E-04
:Pm_ion:
 -6.1024694397E+01   3.9967702683E+02   2.3384801033E+02
  7.3483811801E+01  -2.9171491101E+01   2.6159317067E+02
  3.0608466544E+02  -1.9006913390E+02  -2.1055448495E+02
 -1.4738715780E+02  -2.8403087089E+01  -2.0689348082E+02
  1.5467509199E+02   2.3062041773E+02  -2.4417465161E+01
 -1.1086685508E+02   2.3446511046E+02  -3.0456381106E+01
 -3.9780964132E+02  -2.6927586663E+02   1.6047236694E+02
  1.0025881322E+01   1.0017630966E+02   1.9480350511E+02
  1.2839687224E+02  -2.0619117981E+02   5.6372088944E+01
 -1.8833477936E+02   3.5383568304E+01  -2.8805499211E+02
  1.8378087035E+01   4.8807833549E+01  -1.8701395297E+02
  7.2355713712E+01  -2.0019011233E+02   2.4470537603E+02
  3.0128826203E+02   2.3014878697E+01   2.0529750140E+02
  3.8687093109E+02   2.0068785043E+02  -3.9171171114E+01
 -3.6355992108E+02   3.2644526954E+02  -1.4543373024E+02
  8.1120190587E+00  -4.2936599973E+02  -2.8049208619E+01
  1.0264698067E+02   9.1932660609E+01   1.0363749608E+02
 -1.3257545745E+02   3.0722439921E+01   3.2143466039E+01
  1.8511085331E+02  -2.2068850301E+02  -4.7668884156E+02
 -1.7900111402E+02  -2.0059243399E+01  -1.7272857187E+02
  6.3194230106E+01  -1.0248510780E+02   7.4286154230E+01
 -2.4799704405E+02   4.5201285224E+01   7.8296539373E+00
  1.9048563485E+02   1.8814105432E+02  -2.8409185307E+01
 -5.4851383015E+02  -3.7743490835E+00   1.0315052164E+02
  1.5807874196E+02  -1.3831266896E+02  -3.1294554800E+02
 -3.8091357536E+01  -1.5339194950E+02   3.3549511526E+02
  2.8373958139E+02  -7.1127660275E+01   1.1781908853E+01
 -1.6818956897E+02   1.3380055636E+02   1.6252137656E+02
  1.6152187462E+01   1.0363763973E+01  -3.8915093057E+01
 -1.9759213199E+02  -2.9693772857E+02  -3.6869808811E+02
  2.2137195751E+02   2.4267296664E+02   1.7866835580E+02
  1.0049205022E+02   1.7331088939E+01   1.9182412718E+02
:NPH_BMASS: 0.1
:NPH_INIT_Hamiltonian: -103.681526754895
:KE: 0.166849310856701
:Kbaro: 0.016949643288971
:Ubaro: 0
:kinetic_stress: 
 0.000277120701010979 -9.25264571565886e-07 4.01244760454559e-06 
 -9.25264571565886e-07 0.000212554417024622 4.59493523128306e-05 
 4.01244760454559e-06 4.59493523128306e-05 0.000233437168299877
:Pm_metric_tensor: 
 0.518927481076437 0.000980517563512018 -0.00372932063664148 
 0.000980517563512018 0.502090286248635 0.000421216548679229 
 -0.00372932063664148 0.000421216548679229 0.516122550885578
:LATVEC_SCALE:   1.5208153325E+01   1.5208153325E+01   1.5208153325E+01
:LatVec: 
   1.0000000000E+00   0.0000000000E+00   0.0000000000E+00
   0.0000000000E+00   1.0000000000E+00   0.0000000000E+00
   0.0000000000E+00   0.0000000000E+00   1.0000000000E+00
:INITIAL_ANGLES:   9.0000000000E+01   9.0000000000E+01   9.0000000000E+01
:ROTATION_MATRIX: 
   1.0000000000E+00   0.0000000000E+00   0.0000000000E+00
   0.0000000000E+00   1.0000000000E+00   0.0000000000E+00
   0.0000000000E+00   0.0000000000E+00   1.0000000000E+00
:TTHRMI(K): 1120
:EXTERNAL_PRESSURE: 0
:EXTERNAL_STRESS: 0 0 0 0 0 0 GPa
:TEL(K):   1.1200000000E+03
:TIO(K):   1.1330504360E+03
