:MDSTEP: 30
:R(Bohr):
  3.6123202493E-01   4.0916017569E-01   2.3780853351E-01
  3.9133552038E+00   1.5376754053E+01   4.1218159454E+00
  8.0237846924E+00   1.5214348658E+01   1.0387014396E-01
  1.1399708693E+01   1.5380633948E+01   3.6334121302E+00
  1.5599379369E-01   7.9469233734E+00   1.5385981157E+01
  3.7424873010E+00   7.9444371176E+00   3.8191280039E+00
  7.2909333458E+00   7.4285934539E+00   1.5783799621E-01
  1.1570083075E+01   7.8096222077E+00   4.0546180171E+00
  5.6696143656E-01   1.5197819839E+01   7.7665933337E+00
  3.6478864568E+00   3.3162027131E-02   1.1254252017E+01
  7.7203262489E+00   5.1517912209E-02   7.8273463800E+00
  1.1626181132E+01   1.5202790961E+01   1.1802556581E+01
  3.0259216798E-01   7.7260193229E+00   7.9125268017E+00
  4.2542723510E+00   7.9159086583E+00   1.1520621967E+01
  7.3319609632E+00   8.0417879864E+00   7.5519812708E+00
  1.1571553219E+01   7.2730542353E+00   1.1527018282E+01
  9.7515278205E-02   3.9470868211E+00   3.9534241910E+00
  3.7264867451E+00   3.8819293034E+00   1.2826436113E-02
  7.8757338795E+00   3.6359701714E+00   3.4075601379E+00
  1.1399844237E+01   3.8243545257E+00   1.5242948429E+01
  3.4212552571E-01   1.1458885719E+01   3.9335159463E+00
  3.6182880411E+00   1.1604969648E+01   4.9942996900E-01
  7.8744424645E+00   1.1742723966E+01   3.8560545366E+00
  1.1058260982E+01   1.1545565469E+01   8.0258392128E-02
  1.4867952877E-01   3.7140856558E+00   1.1264116934E+01
  3.8274326402E+00   3.7026113640E+00   8.0091621784E+00
  7.9645272064E+00   3.7788565561E+00   1.1577399406E+01
  1.1396293453E+01   3.9839182174E+00   7.8601249705E+00
  3.0553541541E-01   1.1566128511E+01   1.1544652537E+01
  3.6882783137E+00   1.1271342186E+01   7.8508077118E+00
  7.8917937266E+00   1.1796032569E+01   1.1754723053E+01
  1.1671357786E+01   1.1573156106E+01   7.8667266440E+00
:V(Bohr/atu):
 -9.1096140458E-05   5.0338719054E-04   3.0352924707E-04
  1.5119516392E-04  -3.6783210874E-05   3.1705108618E-04
  3.2686530115E-04  -2.3096473712E-04  -3.1040676734E-04
 -1.5134846644E-04  -4.3822243027E-05  -2.3059146579E-04
  1.9613579112E-04   2.7409334838E-04  -3.4223458175E-05
 -1.6397832438E-04   3.1633625984E-04  -3.5883706409E-05
 -4.7493858226E-04  -3.3493982883E-04   2.1314064567E-04
  1.5084274452E-05   1.3775721169E-04   2.5281361084E-04
  5.7487629067E-05  -2.7291967320E-04   3.1779265919E-05
 -1.8142437928E-04   3.1488118333E-05  -3.0112896489E-04
  3.2012390182E-05   6.5837914394E-05  -2.3671372827E-04
  1.2973327750E-04  -2.6267446350E-04   3.1541243697E-04
  3.8128108897E-04   4.1706675471E-05   2.7373450424E-04
  4.8141575704E-04   2.3915611756E-04  -4.2939461057E-05
 -4.3461275138E-04   4.0251271519E-04  -1.9779302915E-04
  3.4949265278E-06  -5.7217358773E-04  -2.4385315031E-05
  1.7534677186E-04   1.0709950424E-04   1.2003128929E-04
 -1.9434720851E-04   4.2134705611E-05   9.3909001689E-05
  2.4345325046E-04  -2.9816445286E-04  -6.7254189870E-04
 -3.0961587079E-04   2.5867168064E-05  -2.1315245206E-04
  1.7906034909E-04  -1.4469193290E-04   1.0218564590E-04
 -3.1577646140E-04   5.8627581772E-05   8.3944321194E-05
  2.5847701117E-04   2.3168864353E-04  -1.1387347630E-04
 -7.9276807758E-04   7.8079875636E-06   1.5993810959E-04
  2.1241450154E-04  -1.5771377022E-04  -4.5531990837E-04
 -9.9496281407E-05  -1.9823454352E-04   4.6802299601E-04
  4.2748327334E-04  -8.1668838366E-05  -4.5352685266E-06
 -2.2342130983E-04   1.5628472918E-04   2.5862958097E-04
  6.8598274464E-05   3.5920586488E-05  -1.1288508717E-04
 -3.7086118550E-04  -3.6179875588E-04  -4.7793770992E-04
  3.6528200614E-04   3.1169523382E-04   1.8608200153E-04
  1.0975940978E-04   1.7285097190E-05   2.9563545906E-04
:Pm_ion:
 -6.8853806765E+01   3.8047851612E+02   2.2941854639E+02
  1.1427885471E+02  -2.7802100956E+01   2.3963884872E+02
  2.4705679264E+02  -1.7457162619E+02  -2.3461682865E+02
 -1.1439472639E+02  -3.3122459834E+01  -1.7428949402E+02
  1.4824663036E+02   2.0716981367E+02  -2.5867345907E+01
 -1.2394083661E+02   2.3909855674E+02  -2.7122222464E+01
 -3.5897601374E+02  -2.5315981705E+02   1.6109952361E+02
  1.1401248319E+01   1.0412195716E+02   1.9108580694E+02
  4.3451260210E+01  -2.0628270689E+02   2.4019935682E+01
 -1.3712720529E+02   2.3799875650E+01  -2.2760432501E+02
  2.4196139557E+01   4.9762712369E+01  -1.7891692472E+02
  9.8057173167E+01  -1.9853900134E+02   2.3840029750E+02
  2.8818624248E+02   3.1523436221E+01   2.0689858610E+02
  3.6387170019E+02   1.8076297220E+02  -3.2455220818E+01
 -3.2849627054E+02   3.0423388492E+02  -1.4949923169E+02
  2.6415937557E+00  -4.3246980001E+02  -1.8431316196E+01
  1.3795373796E+02   8.4260330474E+01   9.4434387664E+01
 -1.5290229522E+02   3.3149399190E+01   7.3882727774E+01
  1.9153637996E+02  -2.3458031398E+02  -5.2912105468E+02
 -2.4358969518E+02   2.0350945085E+01  -1.6769728467E+02
  1.4087538776E+02  -1.1383610195E+02   8.0394361802E+01
 -2.4843652808E+02   4.6125138018E+01   6.6043034420E+01
  2.0335629502E+02   1.8228059792E+02  -8.9589740057E+01
 -6.2370877137E+02   6.1429193075E+00   1.2583100235E+02
  1.6711670351E+02  -1.2408100759E+02  -3.5822206855E+02
 -7.8278509424E+01  -1.5596064862E+02   3.6821619850E+02
  3.3632164909E+02  -6.4252802650E+01  -3.5681138539E+00
 -1.7577628892E+02   1.2295671228E+02   2.0347632901E+02
  5.3969561456E+01   2.8260452835E+01  -8.8812126792E+01
 -2.9177432959E+02  -2.8464448039E+02  -3.7601658073E+02
  2.8738492088E+02   2.4522563007E+02   1.4639965941E+02
  8.6353006077E+01   1.3599017211E+01   2.3259063294E+02
:NPH_BMASS: 0.1
:NPH_INIT_Hamiltonian: -103.682083236203
:KE: 0.169575565903148
:Kbaro: 0.024701794830741
:Ubaro: 0
:kinetic_stress: 
 0.000286321827486345 5.79547177713716e-06 -8.85134557556668e-06 
 5.79547177713716e-06 0.000190554746678834 4.46014919559226e-05 
 -8.85134557556668e-06 4.46014919559226e-05 0.000239200462134511
:Pm_metric_tensor: 
 0.632551486571267 0.00133605764611364 -0.00475578189044133 
 0.00133605764611364 0.620750894859782 0.000440564464597951 
 -0.00475578189044133 0.000440564464597951 0.627838787399029
:LATVEC_SCALE:   1.5409990133E+01   1.5409990133E+01   1.5409990133E+01
:LatVec: 
   1.0000000000E+00   0.0000000000E+00   0.0000000000E+00
   0.0000000000E+00   1.0000000000E+00   0.0000000000E+00
   0.0000000000E+00   0.0000000000E+00   1.0000000000E+00
:INITIAL_ANGLES:   9.0000000000E+01   9.0000000000E+01   9.0000000000E+01
:ROTATION_MATRIX: 
   1.0000000000E+00   0.0000000000E+00   0.0000000000E+00
   0.0000000000E+00   1.0000000000E+00   0.0000000000E+00
   0.0000000000E+00   0.0000000000E+00   1.0000000000E+00
:TTHRMI(K): 1120
:EXTERNAL_PRESSURE: 0
:EXTERNAL_STRESS: 0 0 0 0 0 0 GPa
:TEL(K):   1.1200000000E+03
:TIO(K):   1.1515640544E+03
