:MDSTEP: 10
:R(Bohr):
  2.2759119866E+01   3.7013451447E-01   3.0980028586E-01
  3.7640129850E+00   3.5937401049E+00   3.6987428916E-01
  3.3870732868E-01   3.8300615322E+00   3.6264868426E+00
  3.6427961745E+00   4.1664940139E+00   7.2213621848E+00
  1.5952299945E-01   3.9736189830E+00   1.1543466201E+01
  3.8298521961E+00   1.5148646468E-01   1.0991583268E+01
  2.2669061406E+01   2.2539102520E+01   1.5746097879E+01
  3.9155243018E+00   3.8017241934E+00   1.5630421299E+01
  4.5152813049E+00   2.2367987707E+01   1.9129108141E+01
  2.2397852694E+01   7.6203154685E+00   2.2544963007E+01
  3.9423656579E+00   1.1735705341E+01   2.2859789694E+01
  2.8687755917E-01   1.1281887563E+01   4.0717280099E+00
  4.1626027358E+00   7.8295468526E+00   3.8643232365E+00
  5.6555307313E-01   8.2639515201E+00   7.4827141071E+00
  3.3145856586E+00   1.2014109978E+01   7.7903702389E+00
  3.5907522503E+00   6.9785347415E+00   1.1410929934E+01
  2.2918866460E+01   8.2321877283E+00   1.5232324155E+01
  3.7462043337E+00   1.1623610761E+01   1.5292886602E+01
  2.2849099934E-01   1.1178976780E+01   1.9378778812E+01
  4.2864824220E+00   8.1473030738E+00   1.9207342663E+01
  2.2863609875E+01   1.4808536954E+01   3.4392875490E-01
  4.1477663789E+00   1.9082966121E+01   5.2209423103E-02
  2.2864471741E+01   1.9299755432E+01   3.7818475201E+00
  3.9399878867E+00   1.5551853380E+01   3.9338499763E+00
  2.2468794415E+01   1.5525436655E+01   7.7125207939E+00
  8.0346082178E-02   1.9064013447E+01   1.1280603020E+01
  3.5777945788E+00   1.5220274967E+01   1.1592911827E+01
  2.5010305918E-01   1.5031164104E+01   1.5604265167E+01
  3.5535066139E+00   1.8897996575E+01   1.5599668249E+01
  5.6202365067E-01   1.9591860347E+01   1.9445808692E+01
  3.8389416385E+00   1.5577261485E+01   1.9489943698E+01
  7.5120507337E+00   1.3209371921E-01   2.2774584640E+01
  1.1549969021E+01   4.0926369842E+00   2.2645053496E+01
  7.2323693321E+00   3.5803847444E+00   3.7931622580E+00
  1.1225828161E+01   6.1480199544E-01   3.7114592214E+00
  7.9528117818E+00   2.2816813268E+01   7.4324390542E+00
  1.1413929124E+01   4.0707917279E+00   7.8576951074E+00
  1.1828513199E+01   5.2586842399E-01   1.1670032118E+01
  7.4281069853E+00   2.2938690001E+01   1.4606708478E+01
  1.1064199683E+01   3.5130980421E+00   1.5388883812E+01
  7.4693093040E+00   4.1115231440E+00   1.9408582407E+01
  1.1051796871E+01   2.2780540271E+01   1.9164832796E+01
  7.8866927049E+00   7.6396813486E+00   1.6482199548E-01
  1.1994515383E+01   1.1666850254E+01   1.6659011482E-01
  8.0729548979E+00   1.1087860285E+01   4.2959095526E+00
  1.1287588958E+01   7.7162144412E+00   3.7436887778E+00
  7.6994461888E+00   7.9347838362E+00   7.8497818502E+00
  1.1642016865E+01   1.1572021739E+01   8.1154151827E+00
  8.5174106645E+00   1.1467063928E+01   1.1603776225E+01
  1.1286664548E+01   7.6780742077E+00   1.1794226111E+01
  7.5975958938E+00   7.8100648219E+00   1.5134233765E+01
  1.1825735245E+01   1.1319055546E+01   1.5417751605E+01
  8.3810808833E+00   1.1508256016E+01   1.8703987614E+01
  1.1398919205E+01   7.7270621216E+00   1.8982486551E+01
  7.6496044652E+00   1.5299734523E+01   2.2854311572E+01
  1.1667327591E+01   1.9095927869E+01   9.1138228479E-02
  8.2006078283E+00   1.9329554763E+01   4.2029511126E+00
  1.1116159959E+01   1.5160264161E+01   3.7422647527E+00
  7.7437242620E+00   1.4918058158E+01   7.6089091559E+00
  1.2138589785E+01   1.9151745128E+01   7.8027394336E+00
  7.4160990773E+00   1.9221828493E+01   1.1371397215E+01
  1.1489688000E+01   1.5507227544E+01   1.1810116433E+01
  7.6341481504E+00   1.5233981837E+01   1.5095633143E+01
  1.1455225895E+01   1.8907348335E+01   1.5160175881E+01
  1.1799199484E+01   1.5331175186E+01   1.9054667063E+01
  1.5675235044E+01   7.2970987526E-01   2.2941767525E+01
  1.5374129586E+01   3.7451153752E+00   4.1661807527E+00
  1.9399312220E+01   2.2758134126E+01   4.1455637304E+00
  1.9420218934E+01   4.3038607067E+00   8.0193021502E+00
  1.5186099012E+01   4.1456636431E+00   1.1633335871E+01
  1.8497968452E+01   2.2870054462E+01   1.1428367223E+01
  1.5241369919E+01   3.5522642560E+00   1.8835954792E+01
  1.9335909598E+01   2.2662159029E+01   1.8906471887E+01
  1.5528697777E+01   7.9937411571E+00   2.2516277335E+01
  1.9431518381E+01   1.1317306247E+01   2.9010029790E-01
  1.5068858709E+01   1.1619562682E+01   3.9703049855E+00
  1.8820914046E+01   7.8490816057E+00   4.0262650976E+00
  1.5319581829E+01   7.8567996004E+00   7.5772370214E+00
  1.9247265798E+01   1.1370559601E+01   7.7755465707E+00
  1.5093210101E+01   1.1386362604E+01   1.1557645645E+01
  1.5451718576E+01   7.5948340072E+00   1.5155685824E+01
  1.8986745710E+01   1.1799975188E+01   1.5847692166E+01
  1.5805197900E+01   1.1517648900E+01   1.9115069862E+01
  1.9397814309E+01   7.5224425023E+00   1.9006714707E+01
  1.5444308064E+01   1.5476075794E+01   1.0707888079E-01
  1.8508778069E+01   1.9219523385E+01   2.2853402067E+01
  1.5448087540E+01   1.9155306171E+01   3.7481033398E+00
  1.9258801132E+01   1.5400804402E+01   3.7007938908E+00
  1.9061376994E+01   1.9404912416E+01   7.7761641308E+00
  1.5691102070E+01   1.9165846526E+01   1.1460140680E+01
  1.9126418129E+01   1.5239266664E+01   1.1460102365E+01
  1.5146424586E+01   1.5434406320E+01   1.5390826588E+01
  1.9450022772E+01   1.9240922483E+01   1.5302395025E+01
  1.5310238496E+01   1.8932023886E+01   1.9342020337E+01
  1.9612591949E+01   1.5413699241E+01   1.9404688089E+01
  4.1073799152E+00   1.4763527711E-01   3.9827675479E+00
  2.2726087070E+01   4.8087318374E-01   7.4333280993E+00
  3.8215258254E-01   3.5531126236E+00   1.8576212414E+01
  2.2844642458E+01   1.1318667467E+01   1.1287614980E+01
  3.4770722538E+00   1.8644807780E+01   7.8522969179E+00
  7.1787310534E+00   4.0493319820E+00   1.1397690170E+01
  7.7674088125E+00   1.8983724201E+01   1.9329108061E+01
  1.8547715586E+01   3.8168923049E+00   3.1069609186E-01
  1.5380596517E+01   1.2153733036E-02   7.3557548657E+00
  1.5226028787E+01   2.2608859291E+01   1.5852672603E+01
  1.9587479549E+01   3.8206541510E+00   1.5212356028E+01
  1.8824497225E+01   8.0327122734E+00   1.1698677640E+01
  1.5057045003E+01   1.5409359150E+01   7.7140013232E+00
:V(Bohr/atu):
 -1.0305810133E-04   8.6002664345E-04   3.9152201608E-04
 -7.3595971052E-05   7.4244557028E-05   3.1388923755E-04
  4.1300231892E-04  -3.7977814991E-04  -3.2051426611E-04
 -4.6968939120E-04  -4.3525693041E-04  -3.7556329735E-04
  7.1597272926E-05   3.5351777643E-04   4.3750182748E-05
 -4.7716529605E-04   5.5451564676E-04  -1.5411280505E-04
 -8.3603427684E-04  -2.5002218781E-04  -3.1209953522E-05
 -1.0812943716E-04   2.2140689958E-04   4.1404453743E-04
  3.9561196869E-04  -1.3281605153E-04   1.0637642135E-04
 -3.8970846270E-04  -1.2704789182E-04  -4.8374743776E-04
 -2.5173292460E-05  -5.4013266648E-05  -2.2011109660E-04
 -1.4522829820E-04  -2.6475080738E-04   2.5549509676E-04
  5.3508882554E-04   5.0305371140E-05   2.8593511335E-04
  4.5857596372E-04   4.2344987780E-05   8.2266121901E-05
 -5.4182021621E-04   7.9777803307E-04  -3.6652533376E-04
  1.4693109778E-04  -4.8726392742E-04   3.2941258730E-05
 -5.5789034087E-04   6.1816852881E-04  -3.6658997058E-05
 -1.8919359502E-04  -8.3306077258E-06  -5.5102386682E-04
  3.4823689282E-04  -4.3413336947E-04   1.8676827131E-04
  3.8394457146E-04   2.5930424763E-04  -5.0503628988E-04
 -5.2615082544E-05  -4.7969378983E-04   1.2368624366E-04
  4.9710369539E-04  -8.0890280444E-05  -8.1161089440E-05
  2.5453412324E-04   3.6553381891E-05  -4.7951198735E-04
 -1.8247635857E-04   1.1493267918E-04  -2.2111290296E-04
 -9.8863718899E-05   4.4093865401E-04  -3.0305226945E-05
  1.3173039567E-05  -3.4469434088E-04  -5.6520401233E-04
 -3.5896110581E-04  -1.2374559103E-05  -7.2049668892E-05
  1.8281254930E-04  -4.4055386215E-04   8.9633482051E-04
 -2.1791896472E-04  -2.6059379121E-04   3.9603633861E-04
  1.4935192898E-04   4.8159306352E-04   4.3264454946E-04
 -8.2431199173E-06   5.6038231818E-04   2.5332745780E-04
 -2.9080141041E-04   1.6956056792E-04  -3.4241078162E-04
  1.0974464291E-04   2.0485834438E-04  -1.3553613556E-04
 -5.1116201911E-04  -3.4698914569E-04  -2.8863811495E-04
 -2.2279068986E-04   3.6328855312E-04  -8.1528256195E-05
 -1.4973855105E-05  -1.6619961872E-04   3.4497630293E-06
  1.8696008696E-04   3.1950565916E-04  -2.0415792895E-04
  5.1612339317E-04   4.2423119582E-04   1.1986164921E-04
 -2.8839412109E-04   1.0361213243E-04  -3.9380165903E-04
 -4.6218723656E-04  -2.6288872145E-04   3.8304947259E-05
 -1.6496865831E-04   1.6672933789E-04   2.4484118575E-04
  7.7314183412E-05  -1.9569630416E-04  -3.4447820091E-04
  1.2413137550E-04  -4.0866444492E-04   3.0826508210E-04
  3.3991782964E-04   2.6102938040E-04   1.2763632604E-04
  2.0787036742E-04  -6.9976047189E-05   4.9289294732E-04
 -2.7011507650E-04   7.4340788335E-05   2.5731651926E-05
 -2.8605564886E-05   1.0052708266E-04  -1.2913718243E-05
  2.0497983963E-04   1.8163491435E-04   4.4323909792E-04
  6.4431357859E-04   8.2119025507E-05   5.4363786042E-05
 -4.8560365087E-05   2.2437166069E-05   2.4413379694E-05
  4.0270454391E-04  -1.0352607079E-05   1.6513278882E-04
  1.1127140563E-04  -2.4750991100E-04   1.1745909904E-04
  3.4945390406E-04   6.8201180697E-04  -3.8261261447E-04
 -2.1840923270E-04  -2.8210890302E-05   1.6435780691E-05
  1.1080312882E-04  -1.8028550798E-04   5.0681523463E-05
  8.3182909235E-05  -3.6538792045E-04  -2.8785553286E-04
  1.2348884000E-04   1.3482200288E-04   4.0722002086E-04
 -4.6400401883E-04  -1.5040486032E-04   7.0718949738E-05
  1.7817883370E-04  -5.7084585433E-04   1.1592102979E-04
  5.9545527266E-04   5.2464206489E-05  -3.0722970862E-04
 -9.4237775711E-05   6.6567397642E-04   2.2288416834E-04
  1.3585057219E-04   1.0372310221E-04   6.8400783854E-04
 -1.3719884286E-04   3.6521453435E-04  -4.8080545501E-05
  1.1201094253E-04  -3.5852758162E-04  -4.1728736125E-04
  1.2972881450E-04  -3.0084423980E-05  -9.7784512796E-05
  4.4816149406E-04   1.3412518559E-04   1.7979294965E-04
  2.2577034321E-04  -1.6442501957E-04   1.1840465351E-04
  5.2457276588E-04  -3.1508949871E-04   9.8759988807E-05
 -2.5941808076E-05   4.6521676891E-04   3.2554773036E-04
 -5.8474664845E-04   1.6499284938E-04   4.6476820495E-04
 -4.4078670446E-04  -3.9107789501E-05  -1.0126552829E-04
 -4.8984172343E-04  -3.4093684557E-04  -2.6826936447E-04
  4.7175943526E-04  -1.0614807227E-04  -2.5380317183E-04
 -3.9661318674E-04  -2.5745751367E-05  -1.2467231857E-04
  6.3313210666E-04  -4.4622927205E-04   4.9896854117E-04
 -2.6775069316E-04  -4.8842526210E-05   3.0108553827E-04
 -1.9414023816E-04   1.0111546134E-04   5.0903145347E-06
  8.9403890572E-05   1.6401461051E-04  -1.5158461097E-04
  2.5106012273E-04  -2.5383739104E-05   3.5643912906E-04
 -2.5167666461E-04  -6.5672212177E-05   6.1012489927E-05
  2.6753801227E-04   3.7681065293E-04  -1.6969434385E-04
 -4.5161655140E-04  -1.8982084657E-05   9.1499085616E-05
  5.2015500735E-04  -2.8698539014E-05   4.7246985006E-05
  1.0241337946E-04  -2.0306665645E-04   9.8691409787E-05
  2.4055759427E-05  -2.3485236695E-04   1.7263788981E-04
 -5.7536139457E-04   2.0770488609E-05  -3.9226422630E-04
  6.2732978025E-05  -3.1431517076E-04  -2.2326052615E-04
  2.2144939224E-04  -1.3341029168E-04  -3.3296154038E-05
  1.5377798100E-04   9.8855990313E-05   4.5157965890E-06
  5.5468347014E-05   5.9697594637E-05  -5.2755279955E-04
 -9.9903229908E-05   4.9967343989E-04  -1.9473032677E-04
  7.7701088748E-05  -4.9445013140E-05   6.2356113238E-05
 -2.2968976059E-04  -1.4072688718E-05  -5.2805452336E-04
  3.3100102670E-04  -4.3779384046E-04  -1.6695578582E-04
  5.3598992627E-04  -5.9054621791E-04   8.8071640192E-05
 -3.2178885766E-05   2.8076565686E-05   3.2528985391E-04
 -1.6148290209E-04  -1.5560724410E-05   2.0317108671E-05
  1.8137175514E-04  -4.1497087888E-04  -6.9734245843E-04
 -3.2406347402E-04  -1.1807304699E-04  -1.9546497398E-04
 -1.4979021320E-04  -1.4058384857E-04   1.9687273027E-04
 -3.9519821355E-04   7.2158912992E-05  -1.6249185871E-04
  2.4308201882E-04   3.3349616347E-04   1.1110203629E-04
 -7.2511032863E-04   1.0676317976E-04   4.4589367925E-05
  1.2313745890E-04  -3.3559831549E-04  -5.4043964910E-04
 -1.2336584112E-04  -3.6860404559E-04   4.1674950716E-04
  3.1288325980E-04  -1.8220182576E-04   1.1018600862E-04
 -2.6485215060E-04   2.5899496145E-04   2.9773794746E-04
 -1.5369351972E-04  -3.2880535092E-05   1.2112186439E-04
:TEL(K):   1.5000000000E+03
:TIO(K):   1.5000000000E+03
