:MDSTEP: 20
:R(Bohr):
  3.7831751173E-01   2.7557410771E-01   1.5848196464E-01
  3.8307019399E+00   1.5185272061E+01   3.9857855576E+00
  7.8280918133E+00   1.5075872168E+01   1.7588105057E-01
  1.1293823858E+01   1.5190005016E+01   3.6486358936E+00
  1.0415135073E-01   7.7713669272E+00   1.5193405045E+01
  3.7324470235E+00   7.7628177202E+00   3.7785584209E+00
  7.3198748184E+00   7.4175363575E+00   1.0263692809E-01
  1.1415544017E+01   7.6740825495E+00   3.9385455216E+00
  5.3209306376E-01   1.5067160652E+01   7.6521441620E+00
  3.6535114566E+00   2.2793955436E-02   1.1191959258E+01
  7.6124803332E+00   3.4779647018E-02   7.7856252630E+00
  1.1446222187E+01   1.5069776342E+01   1.1568714357E+01
  2.0136669992E-01   7.6160935305E+00   7.7413291235E+00
  4.0757260493E+00   7.7499904251E+00   1.1382142238E+01
  7.3500911393E+00   7.8331274368E+00   7.5018172123E+00
  1.1418907681E+01   7.3202601330E+00   1.1384034308E+01
  5.8123667677E-02   3.8679209456E+00   3.8703733184E+00
  3.7229355180E+00   3.8212161310E+00   1.5204097185E+01
  7.7131925852E+00   3.6606217154E+00   3.5230047856E+00
  1.1318458711E+01   3.7740588202E+00   1.5097854782E+01
  3.0428010409E-01   1.1343514057E+01   3.8578407290E+00
  3.6497967126E+00   1.1438979423E+01   4.8048939848E-01
  7.7088133463E+00   1.1530665264E+01   3.8254313409E+00
  1.1100831196E+01   1.1393952021E+01   4.2414574372E-02
  9.4960523666E-02   3.7069589955E+00   1.1223806481E+01
  3.7964961727E+00   3.7033629933E+00   7.7923875869E+00
  7.7618199903E+00   3.7507178690E+00   1.1425138396E+01
  1.1301817085E+01   3.8912433990E+00   7.6992407028E+00
  2.8983493010E-01   1.1409064949E+01   1.1414886556E+01
  3.7185016263E+00   1.1216447047E+01   7.8659557459E+00
  7.7072214016E+00   1.1564857746E+01   1.1550324215E+01
  1.1489857640E+01   1.1417036675E+01   7.6961840612E+00
:V(Bohr/atu):
 -8.1269682541E-05   5.3161543648E-04   3.1105244889E-04
  9.7905425108E-05  -3.8782151341E-05   3.4792877399E-04
  4.0705051098E-04  -2.5280955808E-04  -2.8016888068E-04
 -1.9597380196E-04  -3.7789375207E-05  -2.7512259002E-04
  2.0574982720E-04   3.0669509137E-04  -3.2492968734E-05
 -1.4750953894E-04   3.1190200787E-04  -4.0484177560E-05
 -5.2906081678E-04  -3.5816239337E-04   2.1350070981E-04
  1.3322104168E-05   1.3324170842E-04   2.5909810087E-04
  1.7053497233E-04  -2.7425562528E-04   7.4921184542E-05
 -2.5038603454E-04   4.7080197264E-05  -3.8305310263E-04
  2.4467238474E-05   6.4910499289E-05  -2.4878912072E-04
  9.6304988809E-05  -2.6627128404E-04   3.2554540496E-04
  4.0079959498E-04   3.0650230556E-05   2.7309899766E-04
  5.1452984944E-04   2.6689109575E-04  -5.2132672724E-05
 -4.8357030598E-04   4.3418911529E-04  -1.9342773599E-04
  1.0744262459E-05  -5.7120151055E-04  -3.7279672957E-05
  1.3124221271E-04   1.1743245578E-04   1.3244957208E-04
 -1.6946422301E-04   3.9261245522E-05   4.1265386096E-05
  2.3664721018E-04  -2.8203991799E-04  -6.0943112413E-04
 -2.2897697408E-04  -2.5516093513E-05  -2.2074577190E-04
  8.1100173440E-05  -1.3100389002E-04   9.4894912179E-05
 -3.1699367463E-04   5.7737286514E-05   1.0262216665E-05
  2.4357625687E-04   2.4042534846E-04  -3.6627274746E-05
 -7.0138348181E-04  -4.7212579133E-06   1.3198857499E-04
  2.0208629723E-04  -1.7671397048E-04  -4.0009567758E-04
 -4.8840643268E-05  -1.9604846479E-04   4.2897676728E-04
  3.6280821175E-04  -9.0852953214E-05   1.4978510794E-05
 -2.1496243747E-04   1.7098840155E-04   2.0778007651E-04
  2.0839930613E-05   1.3271689562E-05  -4.9990274544E-05
 -2.5287028840E-04  -3.7951712446E-04  -4.7112868571E-04
  2.8322651362E-04   3.1012536219E-04   2.2814220847E-04
  1.2829180009E-04   2.2151747885E-05   2.4538753182E-04
:Pm_ion:
 -6.1095456032E+01   3.9964826378E+02   2.3383739940E+02
  7.3601574510E+01  -2.9154946199E+01   2.6155961792E+02
  3.0600509093E+02  -1.9005260950E+02  -2.1062030755E+02
 -1.4732564995E+02  -2.8408614864E+01  -2.0682669818E+02
  1.5467489386E+02   2.3056170375E+02  -2.4426977940E+01
 -1.1089206047E+02   2.3447606552E+02  -3.0434464769E+01
 -3.9772779786E+02  -2.6925286371E+02   1.6050171258E+02
  1.0015051173E+01   1.0016604819E+02   1.9478009677E+02
  1.2820170546E+02  -2.0617494706E+02   5.6322896717E+01
 -1.8823069669E+02   3.5393101486E+01  -2.8796475214E+02
  1.8393539210E+01   4.8797244327E+01  -1.8703019762E+02
  7.2398427378E+01  -2.0017262303E+02   2.4473265249E+02
  3.0130589006E+02   2.3041677471E+01   2.0530543841E+02
  3.8680396934E+02   2.0063857390E+02  -3.9191360353E+01
 -3.6352976219E+02   3.2640686137E+02  -1.4541161439E+02
  8.0771278308E+00  -4.2940756851E+02  -2.8025440100E+01
  1.0269791107E+02   9.1891683714E+01   1.0364267787E+02
 -1.3260689030E+02   3.0722187762E+01   3.2290441193E+01
  1.8517802805E+02  -2.2069812614E+02  -4.7688393922E+02
 -1.7917601689E+02  -1.9966514190E+01  -1.7273504602E+02
  6.3461429274E+01  -1.0251142197E+02   7.4255904793E+01
 -2.4804967499E+02   4.5179813670E+01   8.0302533204E+00
  1.9060005352E+02   1.8813444657E+02  -2.8661087975E+01
 -5.4883727539E+02  -3.6944159604E+00   1.0328194456E+02
  1.5813388203E+02  -1.3827986629E+02  -3.1307754926E+02
 -3.8218130702E+01  -1.5340923767E+02   3.3567719553E+02
  2.8389985734E+02  -7.1093044813E+01   1.1720785087E+01
 -1.6820954806E+02   1.3379957022E+02   1.6258930247E+02
  1.6307385380E+01   1.0385186033E+01  -3.9117724880E+01
 -1.9787269548E+02  -2.9697469352E+02  -3.6866135421E+02
  2.2162664517E+02   2.4267517446E+02   1.7852280721E+02
  1.0038919342E+02   1.7333891188E+01   1.9201738831E+02
:NPT_NP_QMASS: 500
:NPT_NP_BMASS: 0.1
:NPT_NP_SNOSE[0]: 1.00739483002961
:NPT_NP_SNOSE[1]: 4.09685325782523e-05
:NPT_NP_SNOSE[2]: 1.00637161793865
:NPT_NP_INIT_Hamiltonian: -103.681526754895
:KE: 0.164437543931353
:Kbaro: 0.0169533277071484
:Ubaro: 0
:kinetic_stress: 
 0.000273144812634447 -8.96810111238456e-07 3.89087528613967e-06 
 -8.96810111238456e-07 0.00020940087218719 4.52668252188278e-05 
 3.89087528613967e-06 4.52668252188278e-05 0.000230064338148921
:Pm_metric_tensor: 
 0.519041658963769 0.000986583332382675 -0.00375003791063987 
 0.000986583332382675 0.502128135055276 0.00041702636950794 
 -0.00375003791063987 0.00041702636950794 0.516227485294508
:LATVEC_SCALE:   1.5208810074E+01   1.5208810074E+01   1.5208810074E+01
:LatVec: 
   1.0000000000E+00   0.0000000000E+00   0.0000000000E+00
   0.0000000000E+00   1.0000000000E+00   0.0000000000E+00
   0.0000000000E+00   0.0000000000E+00   1.0000000000E+00
:INITIAL_ANGLES:   9.0000000000E+01   9.0000000000E+01   9.0000000000E+01
:ROTATION_MATRIX: 
   1.0000000000E+00   0.0000000000E+00   0.0000000000E+00
   0.0000000000E+00   1.0000000000E+00   0.0000000000E+00
   0.0000000000E+00   0.0000000000E+00   1.0000000000E+00
:TTHRMI(K): 1120
:EXTERNAL_PRESSURE: 0
:EXTERNAL_STRESS: 0 0 0 0 0 0 GPa
:TEL(K):   1.1200000000E+03
:TIO(K):   1.1166724627E+03
