:MDSTEP: 30
:R(Bohr):
  3.6152210211E-01   4.0736791135E-01   2.3675063798E-01
  3.9136545116E+00   1.5379245578E+01   4.1212355672E+00
  8.0236144858E+00   1.5217540278E+01   1.0484845506E-01
  1.1402130793E+01   1.5383116701E+01   3.6349352914E+00
  1.5531075803E-01   7.9470481286E+00   1.5388435794E+01
  3.7435728925E+00   7.9445676181E+00   3.8198656022E+00
  7.2939028241E+00   7.4309706620E+00   1.5714003969E-01
  1.1571790601E+01   7.8103299771E+00   4.0543194983E+00
  5.6641912258E-01   1.5201114877E+01   7.7675281298E+00
  3.6493252704E+00   3.3033211570E-02   1.1257283725E+01
  7.7214190653E+00   5.1293621713E-02   7.8293854541E+00
  1.1627612324E+01   1.5206053219E+01   1.1803257743E+01
  3.0127331212E-01   7.7271057623E+00   7.9127796198E+00
  4.2530984746E+00   7.9161680731E+00   1.1522529994E+01
  7.3347333904E+00   8.0414985429E+00   7.5538369038E+00
  1.1573260373E+01   7.2761203017E+00   1.1528912098E+01
  9.7066039399E-02   3.9472540457E+00   3.9535837791E+00
  3.7276543439E+00   3.8823801494E+00   1.2756698412E-02
  7.8761586942E+00   3.6375206573E+00   3.4101110901E+00
  1.1402318910E+01   3.8250517785E+00   1.5246029520E+01
  3.4203648416E-01   1.1461078572E+01   3.9337420335E+00
  3.6198978098E+00   1.1606513365E+01   4.9958326558E-01
  7.8748756532E+00   1.1743676052E+01   3.8566191629E+00
  1.1062211082E+01   1.1547411656E+01   7.9895194351E-02
  1.4803010864E-01   3.7152810811E+00   1.1267180383E+01
  3.8281282807E+00   3.7038443270E+00   8.0089998478E+00
  7.9645428935E+00   3.7797708743E+00   1.1579079653E+01
  1.1398777329E+01   3.9839483875E+00   7.8606005157E+00
  3.0559658874E-01   1.1567839379E+01   1.1546467500E+01
  3.6896025839E+00   1.1274324796E+01   7.8537057282E+00
  7.8921476902E+00   1.1796750575E+01   1.1755633325E+01
  1.1672614786E+01   1.1574848433E+01   7.8671938711E+00
:V(Bohr/atu):
 -8.9994137252E-05   4.9596768470E-04   2.9905966229E-04
  1.4958349233E-04  -3.6232030849E-05   3.1232126344E-04
  3.2179335455E-04  -2.2760945583E-04  -3.0617709340E-04
 -1.4892602368E-04  -4.3225265722E-05  -2.2697933504E-04
  1.9330353703E-04   2.6987838024E-04  -3.3763906869E-05
 -1.6174445036E-04   3.1192897842E-04  -3.5275038143E-05
 -4.6773338307E-04  -3.3001627055E-04   2.1016009650E-04
  1.4846481833E-05   1.3574519793E-04   2.4910985537E-04
  5.5844407103E-05  -2.6890335461E-04   3.1098675181E-05
 -1.7837508348E-04   3.1069040238E-05  -2.9641312892E-04
  3.1570664312E-05   6.4899563991E-05  -2.3329618742E-04
  1.2803697739E-04  -2.5885355775E-04   3.1098985319E-04
  3.7581921242E-04   4.1288864897E-05   2.6978883208E-04
  4.7416772531E-04   2.3546730115E-04  -4.2408304882E-05
 -4.2824018659E-04   3.9654366622E-04  -1.9488210936E-04
  3.3311556064E-06  -5.6417621202E-04  -2.3927762769E-05
  1.7316430473E-04   1.0538573530E-04   1.1830399965E-04
 -1.9168467685E-04   4.1522953021E-05   9.3231898835E-05
  2.4018952121E-04  -2.9398656209E-04  -6.6378505939E-04
 -3.0606243288E-04   2.5994381945E-05  -2.1009852092E-04
  1.7790680396E-04  -1.4281572563E-04   1.0064333016E-04
 -3.1143324068E-04   5.7676369946E-05   8.3824990994E-05
  2.5518156835E-04   2.2831014054E-04  -1.1345911109E-04
 -7.8290804256E-04   8.1730171803E-06   1.5812287849E-04
  2.0960608023E-04  -1.5524756474E-04  -4.4946052238E-04
 -9.8744027877E-05  -1.9553258744E-04   4.6205545664E-04
  4.2212881312E-04  -8.0341065885E-05  -4.7368415105E-06
 -2.2028408001E-04   1.5405385701E-04   2.5537372479E-04
  6.8321484974E-05   3.5544114309E-05  -1.1224786700E-04
 -3.6696303937E-04  -3.5682713911E-04  -4.7092455730E-04
  3.6126039972E-04   3.0728794670E-04   1.8285121060E-04
  1.0777415678E-04   1.7000337924E-05   2.9227037426E-04
:Pm_ion:
 -6.9021766155E+01   3.8038661849E+02   2.2936634216E+02
  1.1472432698E+02  -2.7788463082E+01   2.3953743953E+02
  2.4680214007E+02  -1.7456700086E+02  -2.3482511626E+02
 -1.1422007583E+02  -3.3151983826E+01  -1.7408372438E+02
  1.4825578573E+02   2.0698551061E+02  -2.5895514480E+01
 -1.2405127679E+02   2.3923657321E+02  -2.7054489416E+01
 -3.5873208161E+02  -2.5310877518E+02   1.6118406686E+02
  1.1386635047E+01   1.0411092983E+02   1.9105691447E+02
  4.2830341240E+01  -2.0623770644E+02   2.3851392453E+01
 -1.3680628178E+02   2.3828663682E+01  -2.2733656096E+02
  2.4213388516E+01   4.9775270546E+01  -1.7892848784E+02
  9.8199044762E+01  -1.9852992958E+02   2.3851630316E+02
  2.8823772957E+02   3.1666844805E+01   2.0691683089E+02
  3.6366695491E+02   1.8059364192E+02  -3.2525408787E+01
 -3.2844243991E+02   3.0413252502E+02  -1.4946648516E+02
  2.5548580198E+00  -4.3269972650E+02  -1.8351600414E+01
  1.3824134231E+02   8.4132035934E+01   9.4445005497E+01
 -1.5302661290E+02   3.3148799179E+01   7.4429328038E+01
  1.9174922842E+02  -2.3469673515E+02  -5.2991601104E+02
 -2.4433720113E+02   2.0751957271E+01  -1.6772683952E+02
  1.4202739660E+02  -1.1401332189E+02   8.0346056756E+01
 -2.4862484967E+02   4.6044470963E+01   6.6919561121E+01
  2.0371775001E+02   1.8226562536E+02  -9.0577211274E+01
 -6.2501483131E+02   6.5247215210E+00   1.2623340017E+02
  1.6733371195E+02  -1.2393796617E+02  -3.5881543847E+02
 -7.8829796824E+01  -1.5609849499E+02   3.6887028564E+02
  3.3699585977E+02  -6.4138257639E+01  -3.7815375966E+00
 -1.7585822296E+02   1.2298499980E+02   2.0387115325E+02
  5.4542729267E+01   2.8375744534E+01  -8.9610245195E+01
 -2.9295565978E+02  -2.8486392020E+02  -3.7595070780E+02
  2.8840310167E+02   2.4531555909E+02   1.4597463857E+02
  8.6038771805E+01   1.3571789741E+01   2.3332666001E+02
:NPT_NP_QMASS: 500
:NPT_NP_BMASS: 0.1
:NPT_NP_SNOSE[0]: 1.01458912273147
:NPT_NP_SNOSE[1]: 3.74124647676621e-05
:NPT_NP_SNOSE[2]: 1.0136480109619
:NPT_NP_INIT_Hamiltonian: -103.682083236203
:KE: 0.164969724316266
:Kbaro: 0.0245439986409108
:Ubaro: 0
:kinetic_stress: 
 0.000278706112606435 5.66333849720849e-06 -8.82026362448915e-06 
 5.66333849720849e-06 0.000185047609937925 4.33021837197386e-05 
 -8.82026362448915e-06 4.33021837197386e-05 0.0002326816282532
:Pm_metric_tensor: 
 0.630707118642355 0.00134908584770027 -0.00480252534234651 
 0.00134908584770027 0.618802149159344 0.000433425834573206 
 -0.00480252534234651 0.000433425834573206 0.625951866037555
:LATVEC_SCALE:   1.5412340821E+01   1.5412340821E+01   1.5412340821E+01
:LatVec: 
   1.0000000000E+00   0.0000000000E+00   0.0000000000E+00
   0.0000000000E+00   1.0000000000E+00   0.0000000000E+00
   0.0000000000E+00   0.0000000000E+00   1.0000000000E+00
:INITIAL_ANGLES:   9.0000000000E+01   9.0000000000E+01   9.0000000000E+01
:ROTATION_MATRIX: 
   1.0000000000E+00   0.0000000000E+00   0.0000000000E+00
   0.0000000000E+00   1.0000000000E+00   0.0000000000E+00
   0.0000000000E+00   0.0000000000E+00   1.0000000000E+00
:TTHRMI(K): 1120
:EXTERNAL_PRESSURE: 0
:EXTERNAL_STRESS: 0 0 0 0 0 0 GPa
:TEL(K):   1.1200000000E+03
:TIO(K):   1.1202864255E+03
