:MDSTEP: 10
:R(Bohr):
  1.0650279150E-01   1.8272119296E-01   1.6758865614E-01
  5.3096720583E+00   5.2941655193E+00   1.7570861428E-01
  1.0572082891E+01   2.6060873186E+01   1.5687921882E+01
  7.3270796934E-02   5.2918214797E+00   5.2703238115E+00
  5.3349363516E+00   1.0546065506E+01   5.3127944863E+00
  1.0488073137E+01   1.5742151523E+01   5.3098756989E+00
  1.5623665613E+01   2.6051856125E+01   1.0553369823E+01
  5.3100225785E+00   1.5726943261E+01   1.0565668053E+01
  1.0552343565E+01   2.0864788286E+01   1.0540857127E+01
  5.2100253692E+00   1.0822911252E-01   5.2077931520E+00
  1.0456237679E+01   5.3114926062E+00   5.2395490881E+00
  1.5664462802E+01   1.0460765272E+01   5.3158037079E+00
  5.3118639480E+00   5.2998701689E+00   1.0503734206E+01
  1.0534431359E+01   1.0538541338E+01   1.0459123856E+01
  1.5583013059E+01   1.5762870820E+01   1.0434697494E+01
  5.2623109200E+00   1.0428071269E+01   1.5668462895E+01
  1.0421632483E+01   1.5774243440E+01   1.5671248042E+01
  1.5640048462E+01   2.0913973713E+01   1.5630327577E+01
  2.6189662660E+00   2.6196414475E+00   2.6217276455E+00
  7.7783512154E+00   7.8026682535E+00   2.5923957792E+00
  1.3028615059E+01   1.2955751484E+01   2.5268223909E+00
  2.5815537992E+00   7.7822864215E+00   7.7652502748E+00
  7.7905813619E+00   1.2973535083E+01   7.8191406268E+00
  1.2960031812E+01   1.8202914900E+01   7.7786703575E+00
  2.6247378262E+00   1.3039092905E+01   1.3025860614E+01
  7.7235387496E+00   1.8195330955E+01   1.3007102023E+01
  1.3027762894E+01   2.3371706276E+01   1.2954652331E+01
  7.7516323895E+00   2.5677141935E+00   7.7959425761E+00
  1.2988640425E+01   7.7797758794E+00   7.7592675890E+00
  1.8119631210E+01   1.3023258984E+01   7.7788549224E+00
  7.7389849320E+00   7.7926111239E+00   1.2957464630E+01
  1.2934925480E+01   1.2936609813E+01   1.2867455940E+01
  1.8167930976E+01   1.8237551403E+01   1.2997782839E+01
  7.7819978931E+00   1.3003489873E+01   1.8168235635E+01
  1.2970340832E+01   1.8239376510E+01   1.8159249903E+01
  1.8128891599E+01   2.3404272077E+01   1.8162577336E+01
:V(Bohr/atu):
 -3.3515143622E-05   4.8318593645E-04   2.7071611030E-04
 -2.3940493176E-06  -1.0289708440E-04   3.2599096803E-04
  4.1320532684E-04  -3.1188137442E-04  -2.4673812769E-04
 -2.5486505284E-04  -8.5481487213E-05  -3.3747152493E-04
  1.6417973553E-04   2.8650246161E-04  -5.5873515540E-05
 -1.4808949858E-04   2.5475852619E-04  -7.8213905612E-05
 -5.6020426824E-04  -3.9590848194E-04   1.5531510946E-04
 -1.8052065404E-06   9.1003921600E-05   2.2900536029E-04
  2.7837432835E-04  -3.2644700933E-04   6.8888397654E-05
 -3.1176815105E-04  -2.0674714376E-05  -4.3173785665E-04
  1.7519346655E-06   9.3955524486E-06  -2.2122895889E-04
  5.6629113973E-05  -3.3134899008E-04   2.8759164965E-04
  3.6179831335E-04  -3.8831108308E-05   2.4309163258E-04
  5.1792679275E-04   2.2205068137E-04  -5.8397848908E-05
 -4.8554600810E-04   3.9880958108E-04  -2.1014773016E-04
  3.6990770608E-05  -5.8119676043E-04  -5.0539214578E-05
 -2.2553107203E-04   4.0688585408E-04  -3.6556229320E-05
 -1.0510630471E-04   1.7410220600E-06  -3.0578331832E-04
  1.3755464854E-04   1.5426026178E-04   1.5650538628E-04
 -1.2377189860E-04   5.1720492051E-05  -3.9537449984E-05
  2.1268697466E-04  -2.6683010279E-04  -4.7562318250E-04
 -1.1166696695E-04  -5.7544241305E-05  -1.8005020354E-04
 -4.2946830412E-05  -1.0500452673E-04   1.8462283876E-04
 -2.4981316239E-04   9.1599492032E-05  -9.2265702885E-05
  1.7067132864E-04   2.5444753990E-04   1.5901834807E-04
 -4.8997179487E-04  -1.8955066171E-05   3.7256290360E-05
  2.0192263762E-04  -1.8680697134E-04  -3.1435805944E-04
  4.4719992697E-05  -2.0576290334E-04   3.4004982056E-04
  3.0348419914E-04  -1.1590313249E-04   9.9523150741E-05
 -1.5847306289E-04   1.7851837971E-04   2.3311027653E-04
 -3.2656334448E-05   1.1401430877E-05   1.2641143273E-04
 -4.7812581430E-05  -3.5218680938E-04  -4.6394520859E-04
  1.6134838149E-04   3.1129436319E-04   3.9278102088E-04
  2.4839486192E-04   1.1346685381E-05   1.3208771361E-04
  1.8407997864E-04   2.6239834196E-04   7.5419922428E-05
 -9.7590422836E-05   2.3990502053E-05   9.9580028777E-05
:NPT_NH_QMASS: 4
 4000 4000 4000 4000
:NPT_NH_BMASS: 250000
:NPT_NH_vlogs: 4
 -0.000267468843747045 -0.000103266821036713 -0.000104739954030583 -0.00010429693342875
:NPT_NH_vlogv: -3.89570481473678e-05
:NPT_NH_xlogs: 4
 -0.0138179795346502 -0.00689434012585059 -0.00692796529952016 -0.00691378608387749
:LATVEC_SCALE: 31.1946929456284 31.1946929456284 20.7964619637523
:TTHRMI(K): 1000
:TARGET_PRESSURE: 12 GPa
:TEL(K):   1.0000000000E+03
:TIO(K):   9.7523613869E+02
