:MDSTEP: 10
:R(Bohr):
  1.0650278764E-01   1.8272119792E-01   1.6758865279E-01
  5.3096720817E+00   5.2941655434E+00   1.7570861181E-01
  1.0572082945E+01   2.6060873319E+01   1.5687921965E+01
  7.3270790863E-02   5.2918215059E+00   5.2703238366E+00
  5.3349363748E+00   1.0546065565E+01   5.3127945142E+00
  1.0488073186E+01   1.5742151609E+01   5.3098757240E+00
  1.5623665688E+01   2.6051856262E+01   1.0553369873E+01
  5.3100225943E+00   1.5726943343E+01   1.0565668105E+01
  1.0552343614E+01   2.0864788393E+01   1.0540857172E+01
  5.2100253968E+00   1.0822910828E-01   5.2077931728E+00
  1.0456237742E+01   5.3114926351E+00   5.2395491186E+00
  1.5664462888E+01   1.0460765325E+01   5.3158037335E+00
  5.3118639779E+00   5.2998701947E+00   1.0503734266E+01
  1.0534431411E+01   1.0538541389E+01   1.0459123907E+01
  1.5583013136E+01   1.5762870901E+01   1.0434697547E+01
  5.2623109466E+00   1.0428071316E+01   1.5668462972E+01
  1.0421632536E+01   1.5774243519E+01   1.5671248115E+01
  1.5640048547E+01   2.0913973818E+01   1.5630327661E+01
  2.6189662804E+00   2.6196414615E+00   2.6217276614E+00
  7.7783512618E+00   7.8026682996E+00   2.5923957978E+00
  1.3028615128E+01   1.2955751554E+01   2.5268224091E+00
  2.5815538170E+00   7.7822864675E+00   7.7652503178E+00
  7.7905814014E+00   1.2973535150E+01   7.8191406682E+00
  1.2960031878E+01   1.8202914997E+01   7.7786703995E+00
  2.6247378428E+00   1.3039092978E+01   1.3025860682E+01
  7.7235387906E+00   1.8195331049E+01   1.3007102090E+01
  1.3027762966E+01   2.3371706402E+01   1.2954652399E+01
  7.7516324347E+00   2.5677142053E+00   7.7959426227E+00
  1.2988640493E+01   7.7797759193E+00   7.7592676309E+00
  1.8119631308E+01   1.3023259053E+01   7.7788549650E+00
  7.7389849746E+00   7.7926111658E+00   1.2957464700E+01
  1.2934925548E+01   1.2936609884E+01   1.2867456012E+01
  1.8167931074E+01   1.8237551499E+01   1.2997782911E+01
  7.7819979370E+00   1.3003489942E+01   1.8168235734E+01
  1.2970340904E+01   1.8239376605E+01   1.8159250000E+01
  1.8128891699E+01   2.3404272196E+01   1.8162577434E+01
:V(Bohr/atu):
 -3.3515173241E-05   4.8318595297E-04   2.7071607640E-04
 -2.3940780314E-06  -1.0289710585E-04   3.2599093873E-04
  4.1320531071E-04  -3.1188138537E-04  -2.4673811553E-04
 -2.5486509203E-04  -8.5481495027E-05  -3.3747153472E-04
  1.6417970030E-04   2.8650247793E-04  -5.5873514540E-05
 -1.4808953165E-04   2.5475854627E-04  -7.8213922546E-05
 -5.6020430302E-04  -3.9590846767E-04   1.5531507261E-04
 -1.8052868356E-06   9.1003917532E-05   2.2900533588E-04
  2.7837428640E-04  -3.2644701089E-04   6.8888332912E-05
 -3.1176814201E-04  -2.0674747318E-05  -4.3173789078E-04
  1.7519947879E-06   9.3955592416E-06  -2.2122893379E-04
  5.6629137314E-05  -3.3134899811E-04   2.8759162918E-04
  3.6179832024E-04  -3.8831120926E-05   2.4309166006E-04
  5.1792676636E-04   2.2205064702E-04  -5.8397865940E-05
 -4.8554603110E-04   3.9880956849E-04  -2.1014773584E-04
  3.6990763546E-05  -5.8119680210E-04  -5.0539242704E-05
 -2.2553107494E-04   4.0688582059E-04  -3.6556285035E-05
 -1.0510627998E-04   1.7409912855E-06  -3.0578329601E-04
  1.3755465067E-04   1.5426026189E-04   1.5650539860E-04
 -1.2377185683E-04   5.1720527597E-05  -3.9537415293E-05
  2.1268697951E-04  -2.6683007915E-04  -4.7562313862E-04
 -1.1166693520E-04  -5.7544203784E-05  -1.8005018294E-04
 -4.2946836194E-05  -1.0500452690E-04   1.8462283897E-04
 -2.4981316687E-04   9.1599502115E-05  -9.2265691709E-05
  1.7067134409E-04   2.5444756522E-04   1.5901834261E-04
 -4.8997178024E-04  -1.8955067506E-05   3.7256283377E-05
  2.0192265456E-04  -1.8680694096E-04  -3.1435804652E-04
  4.4720023716E-05  -2.0576290975E-04   3.4004985354E-04
  3.0348419340E-04  -1.1590313403E-04   9.9523159224E-05
 -1.5847303887E-04   1.7851838746E-04   2.3311028612E-04
 -3.2656318669E-05   1.1401438060E-05   1.2641144599E-04
 -4.7812578384E-05  -3.5218677767E-04  -4.6394516352E-04
  1.6134840240E-04   3.1129436126E-04   3.9278103946E-04
  2.4839487886E-04   1.1346694733E-05   1.3208773648E-04
  1.8408000373E-04   2.6239833693E-04   7.5419931913E-05
 -9.7590385704E-05   2.3990485527E-05   9.9580045958E-05
:NPT_NH_QMASS: 4
 4000 4000 4000 4000
:NPT_NH_BMASS: 250000
:NPT_NH_vlogs: 4
 -0.000267468682505132 -0.000103266824050886 -0.000104739954020375 -0.000104296933428773
:NPT_NH_vlogv: -3.89568422083999e-05
:NPT_NH_xlogs: 4
 -0.0138179695975936 -0.00689434019728949 -0.00692796529935585 -0.00691378608387777
:LATVEC_SCALE: 31.194693108412 31.194693108412 20.7964620722747
:TTHRMI(K): 1000
:TARGET_PRESSURE: 12 GPa
:TEL(K):   1.0000000000E+03
:TIO(K):   9.7523612693E+02
