:MDSTEP: 10
:R(Bohr):
  1.1852244038E-02   2.1696830635E-03   1.9265556781E-02
  3.3840631009E-02   5.1589327278E-02   3.0955093200E+00
  6.6452186921E-02   3.0945233301E+00   2.0927909427E-03
  1.1634772976E-01   3.0790149815E+00   3.0644342061E+00
  3.1550227348E+00   4.6036926671E-02   2.3181798087E-02
  3.0569297888E+00   4.5149429945E-02   3.0842874483E+00
  3.1557158642E+00   3.0616080190E+00   4.8312816043E-02
  3.1540844761E+00   3.0776019733E+00   3.0491315963E+00
  6.4108198921E+00   6.0743867168E+00   6.0461580308E+00
  6.1511512301E+00   1.6146719596E-01   2.8806696550E+00
  6.0731066695E+00   3.3058345267E+00   8.3582937908E-02
  6.1658278087E+00   3.1915537337E+00   3.2549710575E+00
  9.1660180312E+00   1.8150419819E-02   5.9546435448E+00
  8.9720211431E+00   1.3516812186E-02   3.0568536453E+00
  9.3444143836E+00   2.9498518205E+00   6.0445676819E+00
  9.2338453458E+00   3.0356747312E+00   2.8964346100E+00
:V(Bohr/atu):
  0.0000000000E+00   0.0000000000E+00   0.0000000000E+00
  0.0000000000E+00   0.0000000000E+00   0.0000000000E+00
  0.0000000000E+00   0.0000000000E+00   0.0000000000E+00
  0.0000000000E+00   0.0000000000E+00   0.0000000000E+00
  0.0000000000E+00   0.0000000000E+00   0.0000000000E+00
  0.0000000000E+00   0.0000000000E+00   0.0000000000E+00
  0.0000000000E+00   0.0000000000E+00   0.0000000000E+00
  0.0000000000E+00   0.0000000000E+00   0.0000000000E+00
  1.2054123463E-03   1.7108456157E-04  -4.7674994910E-04
 -3.9410991578E-04   6.3863657771E-04  -9.1907810497E-04
 -5.5641263134E-05   9.7308095296E-04   4.4585886336E-04
  2.9281108766E-04   5.9960262683E-04   8.7535316628E-04
 -1.1304270151E-04  -2.3908466743E-05  -6.6408781932E-04
 -1.0280529983E-03   2.3231745658E-06  -3.5067957113E-05
  3.7525138310E-04  -6.0514072672E-04  -4.2482275300E-04
  2.0302087807E-04  -1.7389301151E-04  -8.0529714071E-04
:snose: 0.00819511713525556
:xinose: 5.11439652115848e-05
:TTHRMI(K): 800
:TEL(K):   8.0000000000E+02
:TIO(K):   8.0617271087E+02
