:MDSTEP: 10
:R(Bohr):
  1.1852244038E-02   2.1696830635E-03   1.9265556781E-02
  3.3840631009E-02   5.1589327278E-02   3.0955093200E+00
  6.6452186921E-02   3.0945233301E+00   2.0927909427E-03
  1.1634772976E-01   3.0790149815E+00   3.0644342061E+00
  3.1550227348E+00   4.6036926671E-02   2.3181798087E-02
  3.0569297888E+00   4.5149429945E-02   3.0842874483E+00
  3.1557158642E+00   3.0616080190E+00   4.8312816043E-02
  3.1540844761E+00   3.0776019733E+00   3.0491315963E+00
  6.4108180683E+00   6.0743876109E+00   6.0461576288E+00
  6.1511500398E+00   1.6146762459E-01   2.8806697156E+00
  6.0731061518E+00   3.3058340778E+00   8.3583384943E-02
  6.1658271435E+00   3.1915537361E+00   3.2549710457E+00
  9.1660193282E+00   1.8150256834E-02   5.9546437271E+00
  8.9720226098E+00   1.3516914224E-02   3.0568531997E+00
  9.3444143216E+00   2.9498516445E+00   6.0445672779E+00
  9.2338457508E+00   3.0356745080E+00   2.8964346623E+00
:V(Bohr/atu):
  0.0000000000E+00   0.0000000000E+00   0.0000000000E+00
  0.0000000000E+00   0.0000000000E+00   0.0000000000E+00
  0.0000000000E+00   0.0000000000E+00   0.0000000000E+00
  0.0000000000E+00   0.0000000000E+00   0.0000000000E+00
  0.0000000000E+00   0.0000000000E+00   0.0000000000E+00
  0.0000000000E+00   0.0000000000E+00   0.0000000000E+00
  0.0000000000E+00   0.0000000000E+00   0.0000000000E+00
  0.0000000000E+00   0.0000000000E+00   0.0000000000E+00
  1.2053976261E-03   1.7109032951E-04  -4.7675317597E-04
 -3.9411706827E-04   6.3863883075E-04  -9.1907799416E-04
 -5.5644039825E-05   9.7307815704E-04   4.4586168421E-04
  2.9280596608E-04   5.9960318303E-04   8.7535225865E-04
 -1.1303527284E-04  -2.3910455422E-05  -6.6408605531E-04
 -1.0280426156E-03   2.3232966710E-06  -3.5071387869E-05
  3.7524933615E-04  -6.0514046253E-04  -4.2482542009E-04
  2.0302308549E-04  -1.7389334467E-04  -8.0529644873E-04
:snose: 0.00819319564335633
:xinose: 5.11091937142169e-05
:TTHRMI(K): 800
:TEL(K):   8.0000000000E+02
:TIO(K):   8.0616758549E+02
