:MDSTEP: 10
:R(Bohr):
  1.0650212897E-01   1.8284056995E-01   1.6781786554E-01
  5.2707710198E+00   5.2552306578E+00   1.7593844828E-01
  1.0493890970E+01   2.6042920283E+01   1.5748465434E+01
  7.3280090967E-02   5.3119736284E+00   5.2905336201E+00
  5.2957569428E+00   1.0527012447E+01   5.3330758907E+00
  1.0409789546E+01   1.5684086651E+01   5.3301522435E+00
  1.5506627770E+01   2.5975166442E+01   1.0593846288E+01
  5.2710222611E+00   1.5728257231E+01   1.0606178695E+01
  1.0474278424E+01   2.0826860849E+01   1.0581333851E+01
  5.2299030935E+00   1.0827153145E-01   5.2277907913E+00
  1.0437030466E+01   5.2723763661E+00   5.2596007075E+00
  1.5606423382E+01   1.0382716901E+01   5.3359431401E+00
  5.3319094116E+00   5.3200105065E+00   1.0544003876E+01
  1.0515151387E+01   1.0519398556E+01   1.0499335263E+01
  1.5524617384E+01   1.5704883267E+01   1.0474867595E+01
  5.2824729786E+00   1.0468469649E+01   1.5728831362E+01
  1.0402374550E+01   1.5775528078E+01   1.5731629282E+01
  1.5581723537E+01   2.0876052564E+01   1.5690637083E+01
  2.6140225851E+00   2.6146811782E+00   2.6321897102E+00
  7.7343145571E+00   7.7586521034E+00   2.6027931851E+00
  1.2945379118E+01   1.2872380884E+01   2.5371212192E+00
  2.5766164247E+00   7.7974619619E+00   7.7957260463E+00
  7.7466755049E+00   1.2949694995E+01   7.8497019376E+00
  1.2876865287E+01   1.8139911186E+01   7.8091959351E+00
  2.6197698087E+00   1.3074411710E+01   1.3076597641E+01
  7.6795863414E+00   1.8191753506E+01   1.3057818965E+01
  1.2944534880E+01   2.3328669514E+01   1.3005324647E+01
  7.7668259857E+00   2.5629184639E+00   7.8263522896E+00
  1.2964559021E+01   7.7356828689E+00   7.7896347261E+00
  1.8056448294E+01   1.2940223515E+01   7.8092314254E+00
  7.7540416094E+00   7.8078713651E+00   1.3007930268E+01
  1.2910808242E+01   1.2912595220E+01   1.2917788803E+01
  1.8104715093E+01   1.8174559695E+01   1.3048308549E+01
  7.7970282695E+00   1.3038816685E+01   1.8238897413E+01
  1.2946155662E+01   1.8235578191E+01   1.8229905934E+01
  1.8065690789E+01   2.3361480350E+01   1.8233231214E+01
:V(Bohr/atu):
 -3.0261285241E-05   4.8664515733E-04   2.6460714531E-04
  1.1184283497E-06  -9.9607390275E-05   3.1962439083E-04
  4.1648545779E-04  -3.0892895642E-04  -2.5254440580E-04
 -2.5155510433E-04  -8.2407369853E-05  -3.4363603375E-04
  1.6731206678E-04   2.8928202723E-04  -6.1841098191E-05
 -1.4527665618E-04   2.5786633419E-04  -8.4199112337E-05
 -5.5664586552E-04  -3.9199934628E-04   1.4868607117E-04
  1.5315198161E-06   9.4307156758E-05   2.2272370072E-04
  2.8188196650E-04  -3.2347834794E-04   6.2681735533E-05
 -3.0883944123E-04  -1.7081170549E-05  -4.3800764862E-04
  4.6909599351E-06   1.2772986932E-05  -2.2733635012E-04
  6.0137907077E-05  -3.2770296082E-04   2.8091297498E-04
  3.6501302808E-04  -3.5719997169E-05   2.3689216825E-04
  5.2076921604E-04   2.2520352693E-04  -6.4435348913E-05
 -4.8247398673E-04   4.0247212239E-04  -2.1628296887E-04
  4.0350122305E-05  -5.7773968133E-04  -5.7035683970E-05
 -2.2276944346E-04   4.1044855468E-04  -4.2863667783E-05
 -1.0170653358E-04   5.4225133712E-06  -3.1234848638E-04
  1.3383244802E-04   1.5025943557E-04   1.6348094617E-04
 -1.2699427241E-04   4.8269393105E-05  -3.3052958132E-05
  2.0941120331E-04  -2.7061541588E-04  -4.6917932855E-04
 -1.1488367885E-04  -6.0975658905E-05  -1.7376402831E-04
 -4.5708620460E-05  -1.0845551583E-04   1.9106197138E-04
 -2.5280017830E-04   8.8122146980E-05  -8.5296882995E-05
  1.6724768594E-04   2.5055496463E-04   1.6546859409E-04
 -4.9317487732E-04  -2.2543511282E-05   4.3891118728E-05
  1.9824083675E-04  -1.9077409444E-04  -3.0697518608E-04
  4.1601952400E-05  -2.0886611971E-04   3.4642266083E-04
  2.9967034347E-04  -1.1937377387E-04   1.0617026032E-04
 -1.6168309553E-04   1.7550720023E-04   2.3931059492E-04
 -3.6056006164E-05   8.2800688577E-06   1.3247051135E-04
 -5.0912095831E-05  -3.5556607429E-04  -4.5786255557E-04
  1.5786687654E-04   3.0801581641E-04   3.9884639722E-04
  2.4509189147E-04   7.7541956296E-06   1.3848977620E-04
  1.8050829536E-04   2.5899372305E-04   8.2006390935E-05
 -1.0119163608E-04   2.0849769578E-05   1.0600711647E-04
:NPT_NH_QMASS: 4
 4000 4000 4000 4000
:NPT_NH_BMASS: 250000
:NPT_NH_vlogs: 4
 -0.000263081010319212 -0.000103314980139819 -0.000104739822483571 -0.000104296933686099
:NPT_NH_vlogv: -3.84135153536912e-05
:NPT_NH_xlogs: 4
 -0.0136626385568344 -0.00689528956106368 -0.00692796334458323 -0.00691378608693838
:LATVEC_SCALE: 30.96 31.3155214639593 20.8770143093062
:TTHRMI(K): 1000
:TARGET_PRESSURE: 12 GPa
:TEL(K):   1.0000000000E+03
:TIO(K):   9.7612609921E+02
