:MDSTEP: 10
:R(Bohr):
  9.0101296467E+00   9.0119793096E+00   8.9988924464E+00
  1.1989870353E+01   8.9880206904E+00   9.0011075536E+00
:V(Bohr/atu):
  2.1316444918E-04   7.7080665514E-05  -7.1274876593E-06
 -2.1316444918E-04  -7.7080665514E-05   7.1274876593E-06
:TEL(K):   3.1577513100E+02
:TIO(K):   3.1577513100E+02
