:MDSTEP: 10
:R(Bohr):
  1.2020648636E+01   6.0310856591E+00   1.1110179116E-01
  2.4450818668E-02   2.0625031124E-01   2.9959491681E+00
  1.2146132726E+01   2.8965052552E+00   1.0415263279E-01
  1.2101626819E+01   2.9421325666E+00   3.1487983957E+00
  3.0284230754E+00   5.9106366693E+00   1.1034216427E-01
  2.9205163298E+00   6.0751732284E+00   3.2037584085E+00
  3.0294840803E+00   2.8806497871E+00   9.4891923244E-02
  3.1940467356E+00   3.0429672536E+00   2.8732479988E+00
  6.3550382133E+00   8.5903045605E-04   6.0141914327E+00
  6.0493601770E+00   1.3026487344E-01   2.8375548791E+00
  6.0274776254E+00   3.3329209323E+00   4.3888452161E-02
  6.1104669773E+00   3.1745686524E+00   3.2270658842E+00
  9.0716444714E+00   4.5952932653E-05   5.9020392168E+00
  8.8659439994E+00   6.0721371641E+00   3.0361772295E+00
  9.2555101491E+00   2.9036434926E+00   5.9933751201E+00
  9.1592388370E+00   3.0046079134E+00   2.8323579525E+00
:V(Bohr/atu):
 -5.9139085783E-04  -4.5000362851E-04   3.4787942525E-04
  6.8208471909E-06   7.1459633871E-04  -1.3025325264E-04
  1.3548273655E-04  -5.3456587866E-04   5.0092043783E-04
 -1.3004889012E-04  -3.2112521574E-05   6.4486783439E-04
  7.5727713888E-05  -8.3526393985E-04   5.8132225830E-04
 -5.3773422066E-04   5.2769485201E-05   9.1338149586E-04
 -1.1008466784E-04  -8.5578839351E-04   9.1137613978E-05
  7.1815775369E-04   1.0121400887E-04  -6.5653631057E-04
  1.1371180602E-03   3.1017863086E-04  -4.8948166911E-04
 -4.6875747528E-04   6.9132636360E-04  -1.0031276847E-03
 -2.9165024750E-04   1.1262755011E-03   4.3883242080E-04
  2.9865388895E-04   5.4687626363E-04   9.6399178117E-04
  2.6139081383E-05  -1.5299267228E-04  -6.6608321624E-04
 -1.0335430852E-03  -9.0536621385E-05  -6.6272951673E-05
  5.5041585279E-04  -5.2430686420E-04  -5.0823861951E-04
  2.1469350981E-04  -6.7666072025E-05  -9.6233956318E-04
:TEL(K):   8.0000000000E+02
:TIO(K):   8.0000000000E+02
