:MDSTEP: 10
:R(Bohr):
  1.2020648440E+01   6.0310855168E+00   1.1110176431E-01
  2.4450497424E-02   2.0625018593E-01   2.9959492012E+00
  1.2146132524E+01   2.8965054236E+00   1.0415252745E-01
  1.2101626657E+01   2.9421326951E+00   3.1487985128E+00
  3.0284219921E+00   5.9106366545E+00   1.1034197330E-01
  2.9205151645E+00   6.0751732196E+00   3.2037586151E+00
  3.0294832940E+00   2.8806497675E+00   9.4891852983E-02
  3.1940457647E+00   3.0429672733E+00   2.8732480723E+00
  6.3550386083E+00   8.5906203492E-04   6.0141913584E+00
  6.0493605536E+00   1.3026499561E-01   2.8375549225E+00
  6.0274777729E+00   3.3329208815E+00   4.3888314770E-02
  6.1104671735E+00   3.1745685467E+00   3.2270660629E+00
  9.0716453989E+00   4.5929383639E-05   5.9020391357E+00
  8.8659450106E+00   6.0721370606E+00   3.0361772993E+00
  9.2555110450E+00   2.9036435113E+00   5.9933751431E+00
  9.1592397729E+00   3.0046080189E+00   2.8323578935E+00
:V(Bohr/atu):
 -5.9139162792E-04  -4.5000440260E-04   3.4787920470E-04
  6.8186567532E-06   7.1459561136E-04  -1.3025314082E-04
  1.3548177576E-04  -5.3456492669E-04   5.0091984007E-04
 -1.3004910987E-04  -3.2111618824E-05   6.4486872784E-04
  7.5722672382E-05  -8.3526382096E-04   5.8132083088E-04
 -5.3774083412E-04   5.2769627167E-05   9.1338336251E-04
 -1.1008813557E-04  -8.5578893371E-04   9.1136858583E-05
  7.1815279652E-04   1.0121407701E-04  -6.5653569570E-04
  1.1371192686E-03   3.1017963153E-04  -4.8948236662E-04
 -4.6875601555E-04   6.9132759888E-04  -1.0031274142E-03
 -2.9164926095E-04   1.1262742650E-03   4.3883146931E-04
  2.9865415533E-04   5.4687521265E-04   9.6399336919E-04
  2.6144027013E-05  -1.5299254280E-04  -6.6608333339E-04
 -1.0335372347E-03  -9.0537209517E-05  -6.6272706229E-05
  5.5042022858E-04  -5.2430701218E-04  -5.0823856671E-04
  2.1469863772E-04  -6.7665556298E-05  -9.6234043947E-04
:TEL(K):   8.0000000000E+02
:TIO(K):   8.0000000000E+02
