:MDSTEP: 10
:R(Bohr):
  1.6832664235E+01   2.0084467548E+01   5.7213241552E-01
  2.3174365907E+01   1.2097101226E+01   6.6035509489E-01
  2.4920978087E+01   7.9747719171E+00   3.2913872111E+00
  2.0734824000E+01   1.6040565495E+01   3.3325213139E+00
  2.0424118915E+01   1.0374701793E+01   4.9278835502E+00
  2.4848630487E+01   1.5563496213E+01   6.2653341283E+00
  1.9220529076E+01   1.2457933980E+01   6.3512586550E-01
  1.6815748526E+01   2.4162804869E+01   6.2388193499E+00
  2.1342489725E+01   7.5768487979E+00   2.9690180033E+00
  2.8204818673E+01   9.2616951530E+00   3.1104253034E+00
  1.7009478169E+01   1.5265779366E+01   3.1793724246E+00
  2.1041097958E+01   2.0385278981E+01   3.1417999347E+00
:V(Bohr/atu):
  6.3499912519E-05   5.1904356247E-05   6.3176968076E-05
  1.8328760641E-05  -9.6532255124E-05   9.2925699203E-06
  4.2760900287E-05  -9.1161332642E-05   3.6756589159E-05
  1.0720971441E-04   2.3517609886E-05  -1.0925118090E-05
 -3.0753067180E-04   2.1816710851E-04   1.5014390906E-04
 -1.3998696500E-05   5.1962211025E-05  -1.4733733843E-05
 -1.6202014199E-04  -6.7744785642E-06  -8.6548340237E-05
  2.4450928122E-05   2.2305566023E-04  -3.6773735050E-05
 -4.2793693342E-04  -3.5119383206E-04  -2.7049318788E-04
  4.7164694504E-04   1.7352788850E-04  -2.3195286996E-05
 -3.0859284601E-04  -3.2690780418E-05   4.6030579001E-05
 -7.2562678361E-06   4.0792021882E-05   6.7306333823E-06
:TEL(K):   3.1577502480E+02
:TIO(K):   1.5000000000E+03
