:MDSTEP: 10
:R(Bohr):
  2.2760245127E+01   3.7338470582E-01   3.1104780310E-01
  3.7619040157E+00   3.5935284473E+00   3.6985206830E-01
  3.3867007006E-01   3.8287442639E+00   3.6207137312E+00
  3.6423129142E+00   4.1647004407E+00   7.2166990158E+00
  1.5189412726E-01   3.9748666787E+00   1.1547188130E+01
  3.8323618855E+00   1.4816884390E-01   1.0995871454E+01
  2.2670507585E+01   2.2538698216E+01   1.5746493404E+01
  3.9255405582E+00   3.8031019552E+00   1.5627057670E+01
  4.5172207215E+00   2.2377766987E+01   1.9129696464E+01
  2.2399751701E+01   7.6173771308E+00   2.2540991455E+01
  3.9450415338E+00   1.1739333539E+01   2.2863506422E+01
  2.8593309930E-01   1.1286784789E+01   4.0699678567E+00
  4.1666402321E+00   7.8295253905E+00   3.8667947747E+00
  5.6256800639E-01   8.2590205706E+00   7.4843460202E+00
  3.3277074326E+00   1.2019710854E+01   7.7830746089E+00
  3.5989675997E+00   6.9831336235E+00   1.1416968363E+01
  2.2914577049E+01   8.2338841119E+00   1.5238338568E+01
  3.7516179353E+00   1.1632055596E+01   1.5286543739E+01
  2.2583774821E-01   1.1171104830E+01   1.9380588611E+01
  4.2875135716E+00   8.1483923457E+00   1.9204540762E+01
  2.2862620593E+01   1.4807312179E+01   3.4594824645E-01
  4.1539173960E+00   1.9084418369E+01   5.3079626089E-02
  2.2860671393E+01   1.9304270611E+01   3.7792817381E+00
  3.9473099763E+00   1.5542187493E+01   3.9258668112E+00
  2.2468162771E+01   1.5523242879E+01   7.7180783651E+00
  8.3693049419E-02   1.9066472553E+01   1.1280891738E+01
  3.5784196117E+00   1.5215664661E+01   1.1596320624E+01
  2.4936971865E-01   1.5029515495E+01   1.5601856595E+01
  3.5575398591E+00   1.8899910101E+01   1.5595672062E+01
  5.5325482708E-01   1.9595176193E+01   1.9447825268E+01
  3.8462963118E+00   1.5577170808E+01   1.9486242160E+01
  7.5135640268E+00   1.2751051966E-01   2.2777793390E+01
  1.1552707912E+01   4.0940444802E+00   2.2645657819E+01
  7.2378493905E+00   3.5831935870E+00   3.7946194901E+00
  1.1222087482E+01   6.1330220218E-01   3.7047449799E+00
  7.9500337914E+00   2.2816385514E+01   7.4299861423E+00
  1.1410221732E+01   4.0758067441E+00   7.8569170111E+00
  1.1833463957E+01   5.2970020433E-01   1.1666891108E+01
  7.4202127949E+00   2.2942103701E+01   1.4602011171E+01
  1.1059044421E+01   3.5088637338E+00   1.5391368049E+01
  7.4655478442E+00   4.1108291827E+00   1.9407411268E+01
  1.1058330318E+01   2.2780927589E+01   1.9163374535E+01
  7.8890938715E+00   7.6424091853E+00   1.6300489279E-01
  1.1998017053E+01   1.1669371317E+01   1.6877362467E-01
  8.0701883799E+00   1.1088075690E+01   4.3004826320E+00
  1.1289916225E+01   7.7149057476E+00   3.7447028779E+00
  7.6996735367E+00   7.9303161882E+00   7.8520666222E+00
  1.1643327189E+01   1.1568121725E+01   8.1178527138E+00
  8.5070358817E+00   1.1471271212E+01   1.1610968742E+01
  1.1288956301E+01   7.6783617148E+00   1.1791556087E+01
  7.5920578787E+00   7.8117147704E+00   1.5136116882E+01
  1.1823465227E+01   1.1325558443E+01   1.5414632030E+01
  8.3732008522E+00   1.1513789131E+01   1.8692606911E+01
  1.1397868366E+01   7.7200264439E+00   1.8985636401E+01
  7.6503429913E+00   1.5300571913E+01   2.2858787235E+01
  1.1661331716E+01   1.9096811213E+01   8.7684692102E-02
  8.2032976030E+00   1.9340013419E+01   4.2068964369E+00
  1.1116175007E+01   1.5155615107E+01   3.7393502143E+00
  7.7372803089E+00   1.4914898384E+01   7.6019457622E+00
  1.2132377111E+01   1.9155115345E+01   7.8068152731E+00
  7.4114697414E+00   1.9223633376E+01   1.1374083838E+01
  1.1499133068E+01   1.5509101601E+01   1.1814011751E+01
  7.6332281646E+00   1.5230520404E+01   1.5095969251E+01
  1.1455018831E+01   1.8913926356E+01   1.5157050625E+01
  1.1793921930E+01   1.5330673051E+01   1.9059418715E+01
  1.5659404136E+01   7.1904800467E-01   2.2940316709E+01
  1.5372417715E+01   3.7475534103E+00   4.1621464981E+00
  1.9401529560E+01   2.2757528789E+01   4.1533747041E+00
  1.9416599207E+01   4.3044979009E+00   8.0177580698E+00
  1.5184045194E+01   4.1499737480E+00   1.1630497915E+01
  1.8496385629E+01   2.2874636337E+01   1.1425443885E+01
  1.5243902004E+01   3.5505128268E+00   1.8837881910E+01
  1.9336366557E+01   2.2655238557E+01   1.8914814409E+01
  1.5521250076E+01   7.9943984460E+00   2.2516322833E+01
  1.9429047627E+01   1.1317079418E+01   2.8747765805E-01
  1.5069638138E+01   1.1621287050E+01   3.9732839612E+00
  1.8816360985E+01   7.8441694357E+00   4.0276810974E+00
  1.5313767038E+01   7.8544339970E+00   7.5722207961E+00
  1.9255640472E+01   1.1366585053E+01   7.7820136269E+00
  1.5093936559E+01   1.1388270466E+01   1.1556726589E+01
  1.5456555902E+01   7.5914223201E+00   1.5156822188E+01
  1.8989092286E+01   1.1798289553E+01   1.5846037065E+01
  1.5807344376E+01   1.1520151392E+01   1.9113049464E+01
  1.9404128452E+01   7.5239356393E+00   1.9001688541E+01
  1.5442641730E+01   1.5471471206E+01   1.0902074970E-01
  1.8509440266E+01   1.9219941130E+01   2.2855969855E+01
  1.5448912205E+01   1.9153764875E+01   3.7477777164E+00
  1.9256512084E+01   1.5405081216E+01   3.6994377987E+00
  1.9061251236E+01   1.9406007124E+01   7.7726197075E+00
  1.5686451670E+01   1.9155381615E+01   1.1461655107E+01
  1.9125389739E+01   1.5234244929E+01   1.1460976006E+01
  1.5146333853E+01   1.5430602765E+01   1.5383835658E+01
  1.9446711012E+01   1.9245447252E+01   1.5296261269E+01
  1.5307107097E+01   1.8932808746E+01   1.9350153508E+01
  1.9614633321E+01   1.5408325086E+01   1.9403449602E+01
  4.1114548903E+00   1.3493298818E-01   3.9717134507E+00
  2.2731305989E+01   4.7366117336E-01   7.4330169235E+00
  3.8047124050E-01   3.5568381903E+00   1.8577858098E+01
  2.2842632406E+01   1.1319662276E+01   1.1289211944E+01
  3.4770851498E+00   1.8653245460E+01   7.8594636956E+00
  7.1804105575E+00   4.0450085240E+00   1.1401417726E+01
  7.7691011103E+00   1.8981503787E+01   1.9333280725E+01
  1.8559167495E+01   3.8261748636E+00   3.1558764617E-01
  1.5381320206E+01   1.0489097150E-02   7.3546778788E+00
  1.5224128407E+01   2.2602653631E+01   1.5853983574E+01
  1.9593251971E+01   3.8229574857E+00   1.5210773596E+01
  1.8813909862E+01   8.0384244681E+00   1.1703323804E+01
  1.5063107450E+01   1.5406080797E+01   7.7125724939E+00
:V(Bohr/atu):
 -1.0075133671E-04   8.6674018355E-04   3.9257285915E-04
 -7.4987931478E-05   7.4353636121E-05   3.1033579604E-04
  4.0872979921E-04  -3.8233895155E-04  -3.3133234967E-04
 -4.7170413779E-04  -4.3855012830E-04  -3.8564093017E-04
  5.2739702210E-05   3.5331048383E-04   4.9253858252E-05
 -4.7617805234E-04   5.4772745558E-04  -1.4380250224E-04
 -8.2908093522E-04  -2.4898649274E-04  -3.6092345023E-05
 -8.5977995476E-05   2.2490037802E-04   4.0522733292E-04
  3.9505239691E-04  -1.1287899829E-04   1.0776201451E-04
 -3.8021457215E-04  -1.3206168805E-04  -4.8728909288E-04
 -2.0093847934E-05  -4.9292184420E-05  -2.1486852184E-04
 -1.4797274538E-04  -2.5235854580E-04   2.4922718043E-04
  5.4229665104E-04   4.9963448724E-05   2.8929704958E-04
  4.5240436601E-04   2.4370265419E-05   8.9162351875E-05
 -5.1197748007E-04   8.0915756701E-04  -3.8352753036E-04
  1.6070502960E-04  -4.7179375363E-04   4.4851643367E-05
 -5.6480046113E-04   6.2054969980E-04  -2.5634143930E-05
 -1.7983180525E-04   6.0881881910E-06  -5.6282240428E-04
  3.4298593142E-04  -4.4921519548E-04   1.8855625926E-04
  3.8677029215E-04   2.6398853815E-04  -5.0875684170E-04
 -5.3985197039E-05  -4.8054068501E-04   1.2486659567E-04
  5.1149782452E-04  -7.9403414014E-05  -8.0527459854E-05
  2.4913135802E-04   4.4258140661E-05  -4.8571401087E-04
 -1.6974693526E-04   9.4098372765E-05  -2.3804000015E-04
 -1.0037216666E-04   4.3935691335E-04  -1.9966740771E-05
  1.5921415294E-05  -3.4189256781E-04  -5.6624314823E-04
 -3.5780084662E-04  -1.9186221045E-05  -6.6633232659E-05
  1.7930185103E-04  -4.4484624961E-04   8.9662437084E-04
 -2.0951499304E-04  -2.5698231411E-04   3.9083538048E-04
  1.3515175259E-04   4.8504728833E-04   4.4362197980E-04
  2.5712527985E-06   5.6141525248E-04   2.4498134561E-04
 -2.8805034835E-04   1.6600914882E-04  -3.3701298506E-04
  1.1536263395E-04   2.0579468725E-04  -1.3579331711E-04
 -4.9638366814E-04  -3.3793610208E-04  -2.8623859808E-04
 -2.2715214897E-04   3.6280596590E-04  -9.6275054227E-05
 -2.3216850992E-05  -1.6784856125E-04  -1.2486437857E-06
  1.7671075190E-04   3.2943187189E-04  -2.0597487289E-04
  5.2842508327E-04   4.3199497837E-04   1.1357118737E-04
 -3.0178879382E-04   1.1130325374E-04  -4.0300485049E-04
 -4.7704569814E-04  -2.7343335403E-04   4.5308112264E-05
 -1.7246914393E-04   1.6179358863E-04   2.4212295382E-04
  9.1990617283E-05  -1.9468239503E-04  -3.4726869625E-04
  1.2923234146E-04  -4.0483333029E-04   3.0374268961E-04
  3.4362595371E-04   2.6371578978E-04   1.2907791984E-04
  2.0116531988E-04  -6.3822239385E-05   5.0093564307E-04
 -2.6043024864E-04   7.1773951316E-05   2.5877938249E-05
 -2.9614924794E-05   9.1687673667E-05  -4.3922204520E-06
  2.0922704974E-04   1.7315444900E-04   4.4757071520E-04
  6.1359746389E-04   8.9204287920E-05   6.6061425874E-05
 -4.3489174594E-05   2.2351382735E-05   2.3286769171E-05
  3.9153658248E-04  -6.6802393150E-06   1.6785904265E-04
  1.1172639341E-04  -2.3645911206E-04   1.1054870342E-04
  3.3144202734E-04   6.9663956920E-04  -4.0197361055E-04
 -2.2043358136E-04  -4.0543334103E-05   2.2338595236E-05
  1.1656641251E-04  -1.8015257289E-04   6.2628329217E-05
  6.9647833690E-05  -3.6487290376E-04  -2.9525666574E-04
  1.3460060869E-04   1.5464367121E-04   4.1758234866E-04
 -4.6591276238E-04  -1.5760385407E-04   6.4919137355E-05
  1.6759405606E-04  -5.7652843404E-04   1.0389312436E-04
  5.8205832497E-04   6.1669562552E-05  -3.0042644519E-04
 -1.0259942798E-04   6.7161525765E-04   2.2778481951E-04
  1.5392151689E-04   1.0718183094E-04   6.9148214590E-04
 -1.3672137029E-04   3.6231503471E-04  -4.8142731865E-05
  1.0952253859E-04  -3.4585470905E-04  -4.2284807626E-04
  1.2141760473E-04  -3.0272900599E-05  -9.0614378617E-05
  4.1119603137E-04   1.0209763874E-04   1.7841180307E-04
  2.2379473349E-04  -1.5834703238E-04   1.0895603061E-04
  5.2072157025E-04  -3.1129658867E-04   1.1067248008E-04
 -3.5282898771E-05   4.7026150363E-04   3.2216395181E-04
 -5.9058532661E-04   1.7148163901E-04   4.5893504843E-04
 -4.3714644385E-04  -2.6615632445E-05  -1.0714591678E-04
 -4.8458287716E-04  -3.4237407821E-04  -2.6418591068E-04
  4.7096814694E-04  -1.2416036802E-04  -2.3403305516E-04
 -4.1468585371E-04  -2.8098254324E-05  -1.2348732285E-04
  6.2972774870E-04  -4.4884824026E-04   4.9656902791E-04
 -2.6654655627E-04  -4.6465079406E-05   3.1014996605E-04
 -2.0535949243E-04   9.3678158942E-05   7.1399959651E-06
  7.9238532237E-05   1.6052129849E-04  -1.6055558066E-04
  2.6901085203E-04  -3.7570068465E-05   3.6811371162E-04
 -2.4774484722E-04  -6.0855918541E-05   5.9558114392E-05
  2.7644892985E-04   3.6989960857E-04  -1.6522715646E-04
 -4.4392111174E-04  -2.1801323204E-05   8.7492736870E-05
  5.1967052373E-04  -2.2917508455E-05   4.3099795710E-05
  1.1185003773E-04  -1.9866834585E-04   8.5834560702E-05
  2.0364651024E-05  -2.4482198949E-04   1.7702646580E-04
 -5.7245157926E-04   2.5606893218E-05  -3.9121617220E-04
  6.0399899957E-05  -3.1741550136E-04  -2.1956237047E-04
  2.1691528367E-04  -1.2583532454E-04  -3.4770013339E-05
  1.5297271109E-04   1.0071138357E-04   9.4843558195E-07
  4.5039912620E-05   3.3030347228E-05  -5.2731906767E-04
 -1.0175826250E-04   4.9184940565E-04  -1.9369496689E-04
  7.6580248048E-05  -5.6598013008E-05   5.0396767208E-05
 -2.4064126712E-04  -6.2060113132E-06  -5.4195631814E-04
  3.2265655832E-04  -4.3908748803E-04  -1.5336728106E-04
  5.4037087652E-04  -6.0042724291E-04   8.6125583079E-05
 -2.6407295080E-05  -4.8929630425E-06   3.0466800235E-04
 -1.4172614780E-04  -2.9692948843E-05   2.3527558649E-05
  1.7601009717E-04  -4.0528402299E-04  -6.9083013551E-04
 -3.2944131171E-04  -1.1496327468E-04  -1.9073923208E-04
 -1.5122934865E-04  -1.2421940716E-04   2.0973644897E-04
 -3.8523551546E-04   6.3591390811E-05  -1.5432384892E-04
  2.5131059943E-04   3.2673152310E-04   1.1970171048E-04
 -6.9420177353E-04   1.3120995132E-04   5.6120142493E-05
  1.2546018582E-04  -3.4235034360E-04  -5.4759714902E-04
 -1.2632953265E-04  -3.8249091371E-04   4.1888838108E-04
  3.2501597558E-04  -1.7634961032E-04   1.0771807515E-04
 -2.8452295703E-04   2.7097757155E-04   3.0755328100E-04
 -1.4283039244E-04  -3.7793665928E-05   1.1677735249E-04
:TEL(K):   1.5000000000E+03
:TIO(K):   1.5000000000E+03
