:MDSTEP: 10
:R(Bohr):
  1.8888437517E+01   2.8735242886E-01   1.8239146306E-01
  1.1608015841E-02   1.8830319752E+01   6.5131639082E+00
  2.8774609330E-01   1.8708084699E+01   1.2469009441E+01
  1.8783929849E+01   6.2412821445E+00   1.8711747251E+01
  1.4113609588E-01   6.4667798317E+00   6.2861599678E+00
  1.8852417715E+01   6.4546158414E+00   1.2573944728E+01
  1.8592159803E+01   1.2350904433E+01   1.0968224402E-01
  4.2611500914E-02   1.2652906275E+01   6.4609026543E+00
  2.1320053489E-01   1.2401641642E+01   1.2657916160E+01
  6.1165229584E+00   1.8888042775E+01   1.8640351026E+01
  6.3157335017E+00   6.0144438637E-03   6.1709499657E+00
  6.3169406567E+00   1.8698459522E+01   1.2780530126E+01
  6.5026458620E+00   6.2806888369E+00   1.5859818438E-01
  6.5996877277E+00   6.4414889772E+00   6.2778703057E+00
  5.9858159276E+00   6.5373848190E+00   1.2472896320E+01
  6.3015674596E+00   1.2250211252E+01   1.8873937878E+01
  6.1419805052E+00   1.2846022191E+01   6.2881575712E+00
  6.2142983417E+00   1.2601742033E+01   1.2419708099E+01
  1.2687849605E+01   7.4561796055E-02   1.7239097546E-01
  1.2441849133E+01   1.8880700562E+01   6.1880347749E+00
:V(Bohr/atu):
 -3.3778140622E-05   7.0186361482E-04   4.3946182955E-04
  2.2759674950E-05  -1.6665340247E-04   5.1553147264E-04
  7.2855798347E-04  -4.5817159576E-04  -3.1733626669E-04
 -2.2830826089E-04  -1.4296194261E-04  -4.4482519342E-04
  3.8029021984E-04   4.0438947064E-04  -2.5986303843E-05
 -5.1520655959E-05   3.8475719917E-04  -5.5805184204E-05
 -6.8598045188E-04  -6.0164548020E-04   2.6151635334E-04
  1.5314151825E-04   1.3388356580E-04   3.8573233467E-04
  5.6026373380E-04  -4.7206587090E-04   1.3933974852E-04
 -4.3988568154E-04  -1.1994219351E-05  -6.2270771699E-04
  6.2502073314E-05   6.4135339251E-06  -3.0953897528E-04
 -8.7556545569E-07  -4.8487862122E-04   4.4780485609E-04
  4.4329476997E-04  -3.8665561115E-05   3.8523798538E-04
  6.7279467994E-04   3.3534295167E-04  -5.1057948924E-05
 -7.9980571973E-04   5.8111240848E-04  -3.0810261340E-04
 -3.5410472782E-05  -8.4061886214E-04  -5.1496323434E-05
 -4.2459403688E-04   5.9964493668E-04  -2.2964635585E-05
 -2.5542174238E-04   8.0151369809E-06  -4.3065239367E-04
  2.4705087061E-04   1.7475747048E-04   5.3314207866E-04
 -3.9985997579E-04  -3.4957703147E-05  -3.8521878661E-04
:Pm_ion:
 -3.2044954953E+01   6.6585038446E+02   4.1691630651E+02
  2.1591856303E+01  -1.5810227195E+02   4.8908338110E+02
  6.9117504192E+02  -4.3466241410E+02  -3.0105609937E+02
 -2.1659356616E+02  -1.3562644143E+02  -4.2200451601E+02
  3.6077719908E+02   3.8363989643E+02  -2.4653139566E+01
 -4.8877086450E+01   3.6501497382E+02  -5.2942234610E+01
 -6.5078220038E+02  -5.7077452918E+02   2.4809989126E+02
  1.4528369422E+02   1.2701388401E+02   3.6594327301E+02
  5.3151611606E+02  -4.4784376194E+02   1.3219126076E+02
 -4.1731476599E+02  -1.1378785561E+01  -5.9076120824E+02
  5.9295037764E+01   6.0844499410E+00  -2.9365882908E+02
 -8.3063943333E-01  -4.5999907894E+02   4.2483131431E+02
  4.2054893114E+02  -3.6681597664E+01   3.6547428512E+02
  6.3827300183E+02   3.1813621419E+02  -4.8438544720E+01
 -7.5876699509E+02   5.5129502717E+02  -2.9229615626E+02
 -3.3593530734E+01  -7.9748597979E+02  -4.8854429489E+01
 -4.0280774887E+02   5.6887663528E+02  -2.1786490668E+01
 -2.4231583142E+02   7.6038733559E+00  -4.0855881737E+02
  1.0433325865E+02   7.3802680090E+01   2.2515580081E+02
 -1.6886681749E+02  -1.4763158192E+01  -1.6268504749E+02
:NPT_NP_QMASS: 20000
:NPT_NP_BMASS: 40
:NPT_NP_SNOSE[0]: 1.02070930784222
:NPT_NP_SNOSE[1]: 0.000156795225552914
:NPT_NP_SNOSE[2]: 1.01411431249277
:NPT_NP_INIT_Hamiltonian: -52.0755236917102
:KE: 0.224101941142567
:Kbaro: 2.63722047722009e-05
:Ubaro: 0.0229364848849994
:kinetic_stress: 
 0.000232160987733669 -3.28914261309075e-05 4.84668849966923e-05 
 -3.28914261309075e-05 0.000236380020207379 -8.34038115376659e-06 
 4.84668849966923e-05 -8.34038115376659e-06 0.000159018992879568
:Pm_metric_tensor: 
 -0.611131099094125 -0.000588765402185679 0 
 -0.000588765402185679 -0.615296174017678 0 
 0 0 0
:LATVEC_SCALE:   1.8896999151E+01   1.8896999151E+01   1.8897259886E+01
:LatVec: 
   1.0000000000E+00   0.0000000000E+00   0.0000000000E+00
   0.0000000000E+00   1.0000000000E+00   0.0000000000E+00
   0.0000000000E+00   0.0000000000E+00   1.0000000000E+00
:INITIAL_ANGLES:   9.0000000000E+01   9.0000000000E+01   9.0000000000E+01
:ROTATION_MATRIX: 
   1.0000000000E+00   0.0000000000E+00   0.0000000000E+00
   0.0000000000E+00   1.0000000000E+00   0.0000000000E+00
   0.0000000000E+00   0.0000000000E+00   1.0000000000E+00
:TTHRMI(K): 2400
:EXTERNAL_PRESSURE: 0.1
:EXTERNAL_STRESS: 0 0 0 0 0 0 GPa
:TEL(K):   2.4000000000E+03
:TIO(K):   2.4830103868E+03
